Compound,solubility_log in mol/L (solubility expressed as a logarithm in mol/L),SMILES,SELFIES,InChI
Thiometon,-3.091,CCSCCSP(=S)(OC)OC,[C][C][S][C][C][S][P][=Branch1][C][=S][Branch1][Ring1][O][C][O][C],"InChI=1S/C6H15O2PS3/c1-4-11-5-6-12-9(10,7-2)8-3/h4-6H2,1-3H3"
Thiophene,-1.33,c1ccsc1,[C][C][=C][S][C][=Ring1][Branch1],InChI=1S/C4H4S/c1-2-4-5-3-1/h1-4H
Thiophenol ,-2.12,Sc1ccccc1,[S][C][=C][C][=C][C][=C][Ring1][=Branch1],"InChI=1S/C6H6S/c7-6-4-2-1-3-5-6/h1-5,7H"
Thiourea,0.32,NC(=S)N,[N][C][=Branch1][C][=S][N],"InChI=1S/CH4N2S/c2-1(3)4/h(H4,2,3,4)"
Thymol,-2.22,CC(C)c1ccc(C)cc1O,[C][C][Branch1][C][C][C][=C][C][=C][Branch1][C][C][C][=C][Ring1][#Branch1][O],"InChI=1S/C10H14O/c1-7(2)9-5-4-8(3)6-10(9)11/h4-7,11H,1-3H3"
Toluene ,-2.21,Cc1ccccc1,[C][C][=C][C][=C][C][=C][Ring1][=Branch1],"InChI=1S/C7H8/c1-7-5-3-2-4-6-7/h2-6H,1H3"
t-Pentylbenzene,-4.15,CC(C)(C)Cc1ccccc1,[C][C][Branch1][C][C][Branch1][C][C][C][C][=C][C][=C][C][=C][Ring1][=Branch1],"InChI=1S/C11H16/c1-11(2,3)9-10-7-5-4-6-8-10/h4-8H,9H2,1-3H3"
"trans-1,4-Dimethylcyclohexane",-4.47,C/C1CCC(\C)CC1,[C][/C][C][C][C][Branch1][C][\C][C][C][Ring1][#Branch1],"InChI=1S/C8H16/c1-7-3-5-8(2)6-4-7/h7-8H,3-6H2,1-2H3"
trans-2-Heptene ,-3.82,CCCC/C=C/C,[C][C][C][C][/C][=C][/C],"InChI=1S/C7H14/c1-3-5-7-6-4-2/h3,5H,4,6-7H2,1-2H3/b5-3+"
trans-2-Pentene ,-2.54,CC/C=C/C,[C][C][/C][=C][/C],"InChI=1S/C5H10/c1-3-5-4-2/h3,5H,4H2,1-2H3/b5-3+"
Triadimefon,-3.61,CC(C)(C)C(=O)C(Oc1ccc(Cl)cc1)n2cncn2,[C][C][Branch1][C][C][Branch1][C][C][C][=Branch1][C][=O][C][Branch1][=N][O][C][=C][C][=C][Branch1][C][Cl][C][=C][Ring1][#Branch1][N][C][=N][C][=N][Ring1][Branch1],"InChI=1S/C14H16ClN3O2/c1-14(2,3)12(19)13(18-9-16-8-17-18)20-11-6-4-10(15)5-7-11/h4-9,13H,1-3H3"
Triallate,-4.88,CC(C)N(C(C)C)C(=O)SCC(Cl)=C(Cl)Cl,[C][C][Branch1][C][C][N][Branch1][=Branch1][C][Branch1][C][C][C][C][=Branch1][C][=O][S][C][C][Branch1][C][Cl][=C][Branch1][C][Cl][Cl],"InChI=1S/C10H16Cl3NOS/c1-6(2)14(7(3)4)10(15)16-5-8(11)9(12)13/h6-7H,5H2,1-4H3"
Triamcinolone,-3.68,CC34CC(O)C1(F)C(CCC2=CC(=O)C=CC12C)C3CC(O)C4(O)C(=O)CO,[C][C][C][C][Branch1][C][O][C][Branch1][C][F][C][Branch1][P][C][C][C][=C][C][=Branch1][C][=O][C][=C][C][Ring1][N][Ring1][#Branch1][C][C][Ring2][Ring1][C][C][C][Branch1][C][O][C][Ring2][Ring1][=Branch1][Branch1][C][O][C][=Branch1][C][=O][C][O],"InChI=1S/C21H27FO6/c1-18-6-5-12(24)7-11(18)3-4-13-14-8-15(25)21(28,17(27)10-23)19(14,2)9-16(26)20(13,18)22/h5-7,13-16,23,25-26,28H,3-4,8-10H2,1-2H3"
Triamterene,-2.404,Nc3nc(N)c2nc(c1ccccc1)c(N)nc2n3,[N][C][=N][C][Branch1][C][N][=C][N][=C][Branch1][=Branch2][C][=C][C][=C][C][=C][Ring1][=Branch1][C][Branch1][C][N][=N][C][Ring1][=N][=N][Ring2][Ring1][C],"InChI=1S/C12H11N7/c13-9-7(6-4-2-1-3-5-6)16-8-10(14)18-12(15)19-11(8)17-9/h1-5H,(H6,13,14,15,17,18,19)"
Triazolam,-4.09,Cc3nnc4CN=C(c1ccccc1Cl)c2cc(Cl)ccc2n34,[C][C][=N][N][=C][C][N][=C][Branch1][#Branch2][C][=C][C][=C][C][=C][Ring1][=Branch1][Cl][C][=C][C][Branch1][C][Cl][=C][C][=C][Ring1][#Branch1][N][Ring2][Ring1][=Branch1][Ring2][Ring1][Ring1],"InChI=1S/C17H12Cl2N4/c1-10-21-22-16-9-20-17(12-4-2-3-5-14(12)19)13-8-11(18)6-7-15(13)23(10)16/h2-8H,9H2,1H3"
Tribromomethane,-1.91,BrC(Br)Br,[Br][C][Branch1][C][Br][Br],InChI=1S/CHBr3/c2-1(3)4/h1H
Trichlorfon,-0.22,COP(=O)(OC)C(O)C(Cl)(Cl)Cl,[C][O][P][=Branch1][C][=O][Branch1][Ring1][O][C][C][Branch1][C][O][C][Branch1][C][Cl][Branch1][C][Cl][Cl],"InChI=1S/C4H8Cl3O4P/c1-10-12(9,11-2)3(8)4(5,6)7/h3,8H,1-2H3"
Trichloroacetonitrile,-2.168,ClC(Cl)(Cl)C#N,[Cl][C][Branch1][C][Cl][Branch1][C][Cl][C][#N],"InChI=1S/C2Cl3N/c3-2(4,5)1-6"
Trichloroethylene,-1.96,ClC=C(Cl)Cl,[Cl][C][=C][Branch1][C][Cl][Cl],InChI=1S/C2HCl3/c3-1-2(4)5/h1H
Trichloromethane,-1.17,ClC(Cl)Cl,[Cl][C][Branch1][C][Cl][Cl],InChI=1S/CHCl3/c2-1(3)4/h1H
Trichloronate,-5.752,CCOP(=S)(CC)Oc1cc(Cl)c(Cl)cc1Cl,[C][C][O][P][=Branch1][C][=S][Branch1][Ring1][C][C][O][C][=C][C][Branch1][C][Cl][=C][Branch1][C][Cl][C][=C][Ring1][Branch2][Cl],"InChI=1S/C10H12Cl3O2PS/c1-3-14-16(17,4-2)15-10-6-8(12)7(11)5-9(10)13/h5-6H,3-4H2,1-2H3"
Triclosan,-4.46,Oc1cc(Cl)ccc1Oc2ccc(Cl)cc2Cl,[O][C][=C][C][Branch1][C][Cl][=C][C][=C][Ring1][#Branch1][O][C][=C][C][=C][Branch1][C][Cl][C][=C][Ring1][#Branch1][Cl],"InChI=1S/C12H7Cl3O2/c13-7-1-3-11(9(15)5-7)17-12-4-2-8(14)6-10(12)16/h1-6,16H"
Tricresyl phosphate,-6.01,Cc1ccc(OP(=O)(Oc2cccc(C)c2)Oc3ccccc3C)cc1,[C][C][=C][C][=C][Branch2][Ring1][=C][O][P][=Branch1][C][=O][Branch1][=N][O][C][=C][C][=C][C][Branch1][C][C][=C][Ring1][#Branch1][O][C][=C][C][=C][C][=C][Ring1][=Branch1][C][C][=C][Ring2][Ring1][=Branch2],"InChI=1S/C21H21O4P/c1-16-11-13-19(14-12-16)23-26(22,24-20-9-6-7-17(2)15-20)25-21-10-5-4-8-18(21)3/h4-15H,1-3H3"
Trietazine,-4.06,CCNc1nc(Cl)nc(n1)N(CC)CC,[C][C][N][C][=N][C][Branch1][C][Cl][=N][C][=Branch1][Ring2][=N][Ring1][#Branch1][N][Branch1][Ring1][C][C][C][C],"InChI=1S/C9H16ClN5/c1-4-11-8-12-7(10)13-9(14-8)15(5-2)6-3/h4-6H2,1-3H3,(H,11,12,13,14)"
Triethyl phosphate,0.43,CCOP(=O)(OCC)OCC,[C][C][O][P][=Branch1][C][=O][Branch1][Ring2][O][C][C][O][C][C],"InChI=1S/C6H15O4P/c1-4-8-11(7,9-5-2)10-6-3/h4-6H2,1-3H3"
Trifluralin,-5.68,CCCN(CCC)c1c(cc(cc1N(=O)=O)C(F)(F)F)N(=O)=O,[C][C][C][N][Branch1][Ring2][C][C][C][C][=C][Branch2][Ring1][=Branch1][C][=C][Branch1][#Branch2][C][=C][Ring1][=Branch1][N][=Branch1][C][=O][=O][C][Branch1][C][F][Branch1][C][F][F][N][=Branch1][C][=O][=O],"InChI=1S/C13H16F3N3O4/c1-3-5-17(6-4-2)12-10(18(20)21)7-9(13(14,15)16)8-11(12)19(22)23/h7-8H,3-6H2,1-2H3"
Triphenylene,-6.726,c1ccc2c(c1)c3ccccc3c4ccccc24,[C][=C][C][=C][C][=Branch1][Ring2][=C][Ring1][=Branch1][C][=C][C][=C][C][=C][Ring1][=Branch1][C][=C][C][=C][C][=C][Ring1][#C][Ring1][=Branch1],InChI=1S/C18H12/c1-2-8-14-13(7-1)15-9-3-4-11-17(15)18-12-6-5-10-16(14)18/h1-12H
Urea,0.96,NC(=O)N,[N][C][=Branch1][C][=O][N],"InChI=1S/CH4N2O/c2-1(3)4/h(H4,2,3,4)"
Valeraldehyde,-0.85,CCCCC=O,[C][C][C][C][C][=O],"InChI=1S/C5H10O/c1-2-3-4-5-6/h5H,2-4H2,1H3"
vamidothion,1.144,CNC(=O)C(C)SCCSP(=O)(OC)(OC),[C][N][C][=Branch1][C][=O][C][Branch1][C][C][S][C][C][S][P][=Branch1][C][=O][Branch1][Ring1][O][C][O][C],"InChI=1S/C8H18NO4PS2/c1-7(8(10)9-2)15-5-6-16-14(11,12-3)13-4/h7H,5-6H2,1-4H3,(H,9,10)"
Vinclozolin,-4.925,CC1(OC(=O)N(C1=O)c2cc(Cl)cc(Cl)c2)C=C,[C][C][Branch2][Ring1][O][O][C][=Branch1][C][=O][N][Branch1][Branch1][C][Ring1][=Branch1][=O][C][=C][C][Branch1][C][Cl][=C][C][Branch1][C][Cl][=C][Ring1][Branch2][C][=C],"InChI=1S/C12H9Cl2NO3/c1-3-12(2)10(16)15(11(17)18-12)9-5-7(13)4-8(14)6-9/h3-6H,1H2,2H3"
Xipamide,-3.79,Cc1cccc(C)c1NC(=O)c2cc(c(Cl)cc2O)S(N)(=O)=O,[C][C][=C][C][=C][C][Branch1][C][C][=C][Ring1][#Branch1][N][C][=Branch1][C][=O][C][=C][C][=Branch1][#Branch2][=C][Branch1][C][Cl][C][=C][Ring1][#Branch1][O][S][Branch1][C][N][=Branch1][C][=O][=O],"InChI=1S/C15H15ClN2O4S/c1-8-4-3-5-9(2)14(8)18-15(20)10-6-13(23(17,21)22)11(16)7-12(10)19/h3-7,19H,1-2H3,(H,18,20)(H2,17,21,22)"
XMC,-2.581,CNC(=O)Oc1cc(C)cc(C)c1,[C][N][C][=Branch1][C][=O][O][C][=C][C][Branch1][C][C][=C][C][Branch1][C][C][=C][Ring1][Branch2],"InChI=1S/C10H13NO2/c1-7-4-8(2)6-9(5-7)13-10(12)11-3/h4-6H,1-3H3,(H,11,12)"