Compound,solubility_log in mol/L (solubility expressed as a logarithm in mol/L),SMILES,SELFIES,InChI
DNOC,-1.456,Cc1cc(cc(N(=O)=O)c1O)N(=O)=O,[C][C][=C][C][=Branch1][=C][=C][C][Branch1][=Branch1][N][=Branch1][C][=O][=O][=C][Ring1][=Branch2][O][N][=Branch1][C][=O][=O],"InChI=1S/C7H6N2O5/c1-4-2-5(8(11)12)3-6(7(4)10)9(13)14/h2-3,10H,1H3"
Dulcin,-2.17,CCOc1ccc(NC(N)=O)cc1,[C][C][O][C][=C][C][=C][Branch1][#Branch1][N][C][Branch1][C][N][=O][C][=C][Ring1][#Branch2],"InChI=1S/C9H12N2O2/c1-2-13-8-5-3-7(4-6-8)11-9(10)12/h3-6H,2H2,1H3,(H3,10,11,12)"
Dyphylline,-0.17,Cn2c(=O)n(C)c1ncn(CC(O)CO)c1c2=O,[C][N][C][=Branch1][C][=O][N][Branch1][C][C][C][N][=C][N][Branch1][Branch2][C][C][Branch1][C][O][C][O][C][=Ring1][#Branch2][C][Ring1][S][=O],"InChI=1S/C10H14N4O4/c1-12-8-7(9(17)13(2)10(12)18)14(5-11-8)3-6(16)4-15/h5-6,15-16H,3-4H2,1-2H3"
Eicosane,-8.172,CCCCCCCCCCCCCCCCCCCC,[C][C][C][C][C][C][C][C][C][C][C][C][C][C][C][C][C][C][C][C],"InChI=1S/C20H42/c1-3-5-7-9-11-13-15-17-19-20-18-16-14-12-10-8-6-4-2/h3-20H2,1-2H3"
Endrin,-6.18,ClC4=C(Cl)C5(Cl)C3C1CC(C2OC12)C3C4(Cl)C5(Cl)Cl,[Cl][C][=C][Branch1][C][Cl][C][Branch1][C][Cl][C][C][C][C][Branch1][Branch2][C][O][C][Ring1][=Branch1][Ring1][Ring1][C][Ring1][Branch2][C][Ring1][=C][Branch1][C][Cl][C][Ring1][=N][Branch1][C][Cl][Cl],"InChI=1S/C12H8Cl6O/c13-8-9(14)11(16)5-3-1-2(6-7(3)19-6)4(5)10(8,15)12(11,17)18/h2-7H,1H2"
Epiandrosterone,-4.16,CC34CCC1C(CCC2CC(O)CCC12C)C3CCC4=O,[C][C][C][C][C][C][Branch1][P][C][C][C][C][C][Branch1][C][O][C][C][C][Ring1][O][Ring1][#Branch1][C][C][Ring1][S][C][C][C][Ring2][Ring1][Ring1][=O],"InChI=1S/C19H30O2/c1-18-9-7-13(20)11-12(18)3-4-14-15-5-6-17(21)19(15,2)10-8-16(14)18/h12-16,20H,3-11H2,1-2H3"
Epitostanol,-5.41,CC45CCC2C(CCC3CC1SC1CC23C)C4CCC5O,[C][C][C][C][C][C][Branch1][P][C][C][C][C][C][S][C][Ring1][Ring1][C][C][Ring1][O][Ring1][#Branch1][C][C][Ring1][S][C][C][C][Ring2][Ring1][Ring1][O],"InChI=1S/C19H30OS/c1-18-8-7-14-12(13(18)5-6-17(18)20)4-3-11-9-15-16(21-15)10-19(11,14)2/h11-17,20H,3-10H2,1-2H3"
Equilenin,-5.24,CC34CCc1c(ccc2cc(O)ccc12)C3CCC4=O,[C][C][C][C][C][=C][Branch1][S][C][=C][C][=C][C][Branch1][C][O][=C][C][=C][Ring1][O][Ring1][#Branch1][C][Ring1][#C][C][C][C][Ring2][Ring1][C][=O],"InChI=1S/C18H18O2/c1-18-9-8-14-13-5-3-12(19)10-11(13)2-4-15(14)16(18)6-7-17(18)20/h2-5,10,16,19H,6-9H2,1H3"
Equilin,-5.282,CC34CCC1C(=CCc2cc(O)ccc12)C3CCC4=O,[C][C][C][C][C][C][=Branch1][S][=C][C][C][=C][C][Branch1][C][O][=C][C][=C][Ring1][O][Ring1][#Branch1][C][Ring1][#C][C][C][C][Ring2][Ring1][C][=O],"InChI=1S/C18H20O2/c1-18-9-8-14-13-5-3-12(19)10-11(13)2-4-15(14)16(18)6-7-17(18)20/h3-5,10,14,16,19H,2,6-9H2,1H3"
Eriodictyol,-3.62,Oc2cc(O)c1C(=O)CC(Oc1c2)c3ccc(O)c(O)c3,[O][C][=C][C][Branch1][C][O][=C][C][=Branch1][C][=O][C][C][Branch1][Branch2][O][C][Ring1][#Branch1][=C][Ring1][N][C][=C][C][=C][Branch1][C][O][C][Branch1][C][O][=C][Ring1][Branch2],"InChI=1S/C15H12O6/c16-8-4-11(19)15-12(20)6-13(21-14(15)5-8)7-1-2-9(17)10(18)3-7/h1-5,13,16-19H,6H2"
Erythritol,0.7,OCC(O)C(O)CO,[O][C][C][Branch1][C][O][C][Branch1][C][O][C][O],"InChI=1S/C4H10O4/c5-1-3(7)4(8)2-6/h3-8H,1-2H2"
Estradiol,-5.03,CC12CCC3C(CCc4cc(O)ccc34)C2CCC1O,[C][C][C][C][C][C][Branch1][S][C][C][C][=C][C][Branch1][C][O][=C][C][=C][Ring1][O][Ring1][#Branch1][C][Ring1][#C][C][C][C][Ring2][Ring1][C][O],"InChI=1S/C18H24O2/c1-18-9-8-14-13-5-3-12(19)10-11(13)2-4-15(14)16(18)6-7-17(18)20/h3,5,10,14-17,19-20H,2,4,6-9H2,1H3"
Estragole,-2.92,c1(OC)ccc(CC=C)cc1,[C][Branch1][Ring1][O][C][=C][C][=C][Branch1][Ring2][C][C][=C][C][=C][Ring1][O],"InChI=1S/C10H12O/c1-3-4-9-5-7-10(11-2)8-6-9/h3,5-8H,1,4H2,2H3"
Estrone,-3.955,CC12CCC3C(CCc4cc(O)ccc34)C2CCC1=O,[C][C][C][C][C][C][Branch1][S][C][C][C][=C][C][Branch1][C][O][=C][C][=C][Ring1][O][Ring1][#Branch1][C][Ring1][#C][C][C][C][Ring2][Ring1][C][=O],"InChI=1S/C18H22O2/c1-18-9-8-14-13-5-3-12(19)10-11(13)2-4-15(14)16(18)6-7-17(18)20/h3,5,10,14-16,19H,2,4,6-9H2,1H3"
Ethalfluralin,-6.124,CCN(CC(C)=C)c1c(cc(cc1N(=O)=O)C(F)(F)F)N(=O)=O,[C][C][N][Branch1][#Branch1][C][C][Branch1][C][C][=C][C][=C][Branch2][Ring1][=Branch1][C][=C][Branch1][#Branch2][C][=C][Ring1][=Branch1][N][=Branch1][C][=O][=O][C][Branch1][C][F][Branch1][C][F][F][N][=Branch1][C][=O][=O],"InChI=1S/C13H14F3N3O4/c1-4-17(7-8(2)3)12-10(18(20)21)5-9(13(14,15)16)6-11(12)19(22)23/h5-6H,2,4,7H2,1,3H3"
Ethane,-1.36,CC,[C][C],InChI=1S/C2H6/c1-2/h1-2H3
Ethanethiol,-0.6,CCS,[C][C][S],"InChI=1S/C2H6S/c1-2-3/h3H,2H2,1H3"
Ethanol,1.1,CCO,[C][C][O],"InChI=1S/C2H6O/c1-2-3/h3H,2H2,1H3"
Ethion,-5.54,CCOP(=S)(OCC)SCSP(=S)(OCC)OCC,[C][C][O][P][=Branch1][C][=S][Branch1][Ring2][O][C][C][S][C][S][P][=Branch1][C][=S][Branch1][Ring2][O][C][C][O][C][C],"InChI=1S/C9H22O4P2S4/c1-5-10-14(16,11-6-2)18-9-19-15(17,12-7-3)13-8-4/h5-9H2,1-4H3"
Ethirimol,-3.028,CCCCc1c(C)nc(NCC)[nH]c1=O,[C][C][C][C][C][=C][Branch1][C][C][N][=C][Branch1][Ring2][N][C][C][NH1][C][Ring1][#Branch2][=O],"InChI=1S/C11H19N3O/c1-4-6-7-9-8(3)13-11(12-5-2)14-10(9)15/h4-7H2,1-3H3,(H2,12,13,14,15)"
Ethofumesate,-3.42,CCOC2Oc1ccc(OS(C)(=O)=O)cc1C2(C)C,[C][C][O][C][O][C][=C][C][=C][Branch1][#Branch2][O][S][Branch1][C][C][=Branch1][C][=O][=O][C][=C][Ring1][O][C][Ring1][=C][Branch1][C][C][C],"InChI=1S/C13H18O5S/c1-5-16-12-13(2,3)10-8-9(18-19(4,14)15)6-7-11(10)17-12/h6-8,12H,5H2,1-4H3"
ethofumesate,-3.42,CCOC2Oc1ccc(OS(C)(=O)=O)cc1C2(C)C,[C][C][O][C][O][C][=C][C][=C][Branch1][#Branch2][O][S][Branch1][C][C][=Branch1][C][=O][=O][C][=C][Ring1][O][C][Ring1][=C][Branch1][C][C][C],"InChI=1S/C13H18O5S/c1-5-16-12-13(2,3)10-8-9(18-19(4,14)15)6-7-11(10)17-12/h6-8,12H,5H2,1-4H3"
Ethyl acetate,-0.04,CCOC(=O)C,[C][C][O][C][=Branch1][C][=O][C],"InChI=1S/C4H8O2/c1-3-6-4(2)5/h3H2,1-2H3"
Ethyl benzoate ,-2.32,CCOC(=O)c1ccccc1,[C][C][O][C][=Branch1][C][=O][C][=C][C][=C][C][=C][Ring1][=Branch1],"InChI=1S/C9H10O2/c1-2-11-9(10)8-6-4-3-5-7-8/h3-7H,2H2,1H3"
Ethyl butyrate,-1.28,CCCCCOC(=O)CC,[C][C][C][C][C][O][C][=Branch1][C][=O][C][C],"InChI=1S/C8H16O2/c1-3-5-6-7-10-8(9)4-2/h3-7H2,1-2H3"
ethyl cinnamate,-3,CCOC(=O)C=Cc1ccccc1,[C][C][O][C][=Branch1][C][=O][C][=C][C][=C][C][=C][C][=C][Ring1][=Branch1],"InChI=1S/C11H12O2/c1-2-13-11(12)9-8-10-6-4-3-5-7-10/h3-9H,2H2,1H3"
Ethyl decanoate,-4.1,CCCCCCCCCC(=O)OCC,[C][C][C][C][C][C][C][C][C][C][=Branch1][C][=O][O][C][C],"InChI=1S/C12H24O2/c1-3-5-6-7-8-9-10-11-12(13)14-4-2/h3-11H2,1-2H3"
Ethyl formate,0.15,CCOC=O,[C][C][O][C][=O],"InChI=1S/C3H6O2/c1-2-5-3-4/h3H,2H2,1H3"
Ethyl heptanoate,-2.74,CCCCCCC(=O)OCC,[C][C][C][C][C][C][C][=Branch1][C][=O][O][C][C],"InChI=1S/C9H18O2/c1-3-5-6-7-8-9(10)11-4-2/h3-8H2,1-2H3"
Ethyl hexanoate,-2.35,CCCCCC(=O)OCC,[C][C][C][C][C][C][=Branch1][C][=O][O][C][C],"InChI=1S/C8H16O2/c1-3-5-6-7-8(9)10-4-2/h3-7H2,1-2H3"
Ethyl nonanoate,-3.8,CCCCCCCCC(=O)OCC,[C][C][C][C][C][C][C][C][C][=Branch1][C][=O][O][C][C],"InChI=1S/C11H22O2/c1-3-5-6-7-8-9-10-11(12)13-4-2/h3-10H2,1-2H3"
Ethyl octanoate,-3.39,CCCCCCCC(=O)OCC,[C][C][C][C][C][C][C][C][=Branch1][C][=O][O][C][C],"InChI=1S/C10H20O2/c1-3-5-6-7-8-9-10(11)12-4-2/h3-9H2,1-2H3"
Ethyl pentanoate,-1.75,CCCOC(=O)CCC,[C][C][C][O][C][=Branch1][C][=O][C][C][C],"InChI=1S/C7H14O2/c1-3-5-7(8)9-6-4-2/h3-6H2,1-2H3"
Ethyl propionate,-0.66,CCOC(=O)CC,[C][C][O][C][=Branch1][C][=O][C][C],"InChI=1S/C5H10O2/c1-3-5(6)7-4-2/h3-4H2,1-2H3"
Ethyl propyl ether,-0.66,CCCOCC,[C][C][C][O][C][C],"InChI=1S/C5H12O/c1-3-5-6-4-2/h3-5H2,1-2H3"
Ethyl vinyl ether,-0.85,CCOC=C,[C][C][O][C][=C],"InChI=1S/C4H8O/c1-3-5-4-2/h3H,1,4H2,2H3"
Ethylbenzene,-2.77,CCc1ccccc1,[C][C][C][=C][C][=C][C][=C][Ring1][=Branch1],"InChI=1S/C8H10/c1-2-8-6-4-3-5-7-8/h3-7H,2H2,1H3"
Ethylcyclohexane,-4.25,CCC1CCCCC1,[C][C][C][C][C][C][C][C][Ring1][=Branch1],"InChI=1S/C8H16/c1-2-8-6-4-3-5-7-8/h8H,2-7H2,1H3"
Ethylene,-0.4,C=C,[C][=C],InChI=1S/C2H4/c1-2/h1-2H2
Ethyl-p-aminobenzoate,-2.1,CCOC(=O)c1ccc(N)cc1,[C][C][O][C][=Branch1][C][=O][C][=C][C][=C][Branch1][C][N][C][=C][Ring1][#Branch1],"InChI=1S/C9H11NO2/c1-2-12-9(11)7-3-5-8(10)6-4-7/h3-6H,2,10H2,1H3"
Ethyl-p-hydroxybenzoate ,-2.35,CCOC(=O)c1ccc(O)cc1,[C][C][O][C][=Branch1][C][=O][C][=C][C][=C][Branch1][C][O][C][=C][Ring1][#Branch1],"InChI=1S/C9H10O3/c1-2-12-9(11)7-3-5-8(10)6-4-7/h3-6,10H,2H2,1H3"
Ethyne,0.29,C#C,[C][#C],InChI=1S/C2H2/c1-2/h1-2H
Etofenprox,-8.6,CCOc1ccc(cc1)C(C)(C)COCc3cccc(Oc2ccccc2)c3,[C][C][O][C][=C][C][=C][Branch1][Branch1][C][=C][Ring1][=Branch1][C][Branch1][C][C][Branch1][C][C][C][O][C][C][=C][C][=C][C][Branch1][#Branch2][O][C][=C][C][=C][C][=C][Ring1][=Branch1][=C][Ring1][=N],"InChI=1S/C25H28O3/c1-4-27-22-15-13-21(14-16-22)25(2,3)19-26-18-20-9-8-12-24(17-20)28-23-10-6-5-7-11-23/h5-17H,4,18-19H2,1-3H3"
Etomidate,-4.735,CCOC(=O)c1cncn1C(C)c2ccccc2,[C][C][O][C][=Branch1][C][=O][C][=C][N][=C][N][Ring1][Branch1][C][Branch1][C][C][C][=C][C][=C][C][=C][Ring1][=Branch1],"InChI=1S/C14H16N2O2/c1-3-18-14(17)13-9-15-10-16(13)11(2)12-7-5-4-6-8-12/h4-11H,3H2,1-2H3"
"Etoposide (148-167,25mg/ml)",-3.571,COc1cc(cc(OC)c1O)C6C2C(COC2=O)C(OC4OC3COC(C)OC3C(O)C4O)c7cc5OCOc5cc67,[C][O][C][=C][C][=Branch1][O][=C][C][Branch1][Ring1][O][C][=C][Ring1][Branch2][O][C][C][C][Branch1][#Branch1][C][O][C][Ring1][Branch1][=O][C][Branch2][Ring1][#Branch1][O][C][O][C][C][O][C][Branch1][C][C][O][C][Ring1][#Branch1][C][Branch1][C][O][C][Ring1][N][O][C][=C][C][O][C][O][C][=Ring1][Branch1][C][=C][Ring2][Ring1][#C][Ring1][=Branch2],"InChI=1S/C29H32O13/c1-11-36-9-20-27(40-11)24(31)25(32)29(41-20)42-26-14-7-17-16(38-10-39-17)6-13(14)21(22-15(26)8-37-28(22)33)12-4-18(34-2)23(30)19(5-12)35-3/h4-7,11,15,20-22,24-27,29-32H,8-10H2,1-3H3"
Eugenol,-1.56,COc1cc(CC=C)ccc1O,[C][O][C][=C][C][Branch1][Ring2][C][C][=C][=C][C][=C][Ring1][=Branch2][O],"InChI=1S/C10H12O2/c1-3-4-8-5-6-9(11)10(7-8)12-2/h3,5-7,11H,1,4H2,2H3"
Fenarimol,-4.38,OC(c1ccc(Cl)cc1)(c2cncnc2)c3ccccc3Cl,[O][C][Branch1][N][C][=C][C][=C][Branch1][C][Cl][C][=C][Ring1][#Branch1][Branch1][=Branch2][C][=C][N][=C][N][=C][Ring1][=Branch1][C][=C][C][=C][C][=C][Ring1][=Branch1][Cl],"InChI=1S/C17H12Cl2N2O/c18-14-7-5-12(6-8-14)17(22,13-9-20-11-21-10-13)15-3-1-2-4-16(15)19/h1-11,22H"
Fenfuram,-3.3,Cc1occc1C(=O)Nc2ccccc2,[C][C][O][C][=C][C][=Ring1][Branch1][C][=Branch1][C][=O][N][C][=C][C][=C][C][=C][Ring1][=Branch1],"InChI=1S/C12H11NO2/c1-9-11(7-8-15-9)12(14)13-10-5-3-2-4-6-10/h2-8H,1H3,(H,13,14)"
Fenitrothion,-4.04,COP(=S)(OC)Oc1ccc(N(=O)=O)c(C)c1,[C][O][P][=Branch1][C][=S][Branch1][Ring1][O][C][O][C][=C][C][=C][Branch1][=Branch1][N][=Branch1][C][=O][=O][C][Branch1][C][C][=C][Ring1][#Branch2],"InChI=1S/C9H12NO5PS/c1-7-6-8(4-5-9(7)10(11)12)15-16(17,13-2)14-3/h4-6H,1-3H3"
Fenothiocarb,-3.927,CN(C)C(=O)SCCCCOc1ccccc1,[C][N][Branch1][C][C][C][=Branch1][C][=O][S][C][C][C][C][O][C][=C][C][=C][C][=C][Ring1][=Branch1],"InChI=1S/C13H19NO2S/c1-14(2)13(15)17-11-7-6-10-16-12-8-4-3-5-9-12/h3-5,8-9H,6-7,10-11H2,1-2H3"
Fenoxycarb,-4.7,CCOC(=O)NCCOc2ccc(Oc1ccccc1)cc2,[C][C][O][C][=Branch1][C][=O][N][C][C][O][C][=C][C][=C][Branch1][#Branch2][O][C][=C][C][=C][C][=C][Ring1][=Branch1][C][=C][Ring1][=N],"InChI=1S/C17H19NO4/c1-2-20-17(19)18-12-13-21-14-8-10-16(11-9-14)22-15-6-4-3-5-7-15/h3-11H,2,12-13H2,1H3,(H,18,19)"
Fenpropathrin,-6.025,CC1(C)C(C(=O)OC(C#N)c2cccc(Oc3ccccc3)c2)C1(C)C,[C][C][Branch1][C][C][C][Branch2][Ring1][=C][C][=Branch1][C][=O][O][C][Branch1][Ring1][C][#N][C][=C][C][=C][C][Branch1][#Branch2][O][C][=C][C][=C][C][=C][Ring1][=Branch1][=C][Ring1][=N][C][Ring2][Ring1][#Branch1][Branch1][C][C][C],"InChI=1S/C22H23NO3/c1-21(2)19(22(21,3)4)20(24)26-18(14-23)15-9-8-12-17(13-15)25-16-10-6-5-7-11-16/h5-13,18-19H,1-4H3"
Fenthion,-4.57,COP(=S)(OC)Oc1ccc(SC)c(C)c1,[C][O][P][=Branch1][C][=S][Branch1][Ring1][O][C][O][C][=C][C][=C][Branch1][Ring1][S][C][C][Branch1][C][C][=C][Ring1][=Branch2],"InChI=1S/C10H15O3PS2/c1-8-7-9(5-6-10(8)16-4)13-14(15,11-2)12-3/h5-7H,1-4H3"
Fenuron,-1.6,CN(C)C(=O)Nc1ccccc1,[C][N][Branch1][C][C][C][=Branch1][C][=O][N][C][=C][C][=C][C][=C][Ring1][=Branch1],"InChI=1S/C9H12N2O/c1-11(2)9(12)10-8-6-4-3-5-7-8/h3-7H,1-2H3,(H,10,12)"
Flucythrinate,-6.876,CC(C)C(C(=O)OC(C#N)c1cccc(Oc2ccccc2)c1)c3ccc(OC(F)F)cc3,[C][C][Branch1][C][C][C][Branch2][Ring1][=C][C][=Branch1][C][=O][O][C][Branch1][Ring1][C][#N][C][=C][C][=C][C][Branch1][#Branch2][O][C][=C][C][=C][C][=C][Ring1][=Branch1][=C][Ring1][=N][C][=C][C][=C][Branch1][#Branch1][O][C][Branch1][C][F][F][C][=C][Ring1][#Branch2],"InChI=1S/C26H23F2NO4/c1-17(2)24(18-11-13-21(14-12-18)32-26(27)28)25(30)33-23(16-29)19-7-6-10-22(15-19)31-20-8-4-3-5-9-20/h3-15,17,23-24,26H,1-2H3"
Flucytosine,-0.972,Nc1nc(=O)[nH]cc1F,[N][C][=N][C][=Branch1][C][=O][NH1][C][=C][Ring1][#Branch1][F],"InChI=1S/C4H4FN3O/c5-2-1-7-4(9)8-3(2)6/h1H,(H3,6,7,8,9)"
Flumethasone,-5.613,CC1CC2C3CC(F)C4=CC(=O)C=CC4(C)C3(F)C(O)CC2(C)C1(O)C(=O)CO,[C][C][C][C][C][C][C][Branch1][C][F][C][=C][C][=Branch1][C][=O][C][=C][C][Ring1][#Branch1][Branch1][C][C][C][Ring1][=N][Branch1][C][F][C][Branch1][C][O][C][C][Ring2][Ring1][Ring1][Branch1][C][C][C][Ring2][Ring1][#Branch1][Branch1][C][O][C][=Branch1][C][=O][C][O],"InChI=1S/C22H28F2O5/c1-11-6-13-14-8-16(23)15-7-12(26)4-5-19(15,2)21(14,24)17(27)9-20(13,3)22(11,29)18(28)10-25/h4-5,7,11,13-14,16-17,25,27,29H,6,8-10H2,1-3H3"
Flumetralin,-6.78,CCN(Cc1c(F)cccc1Cl)c2c(cc(cc2N(=O)=O)C(F)(F)F)N(=O)=O,[C][C][N][Branch1][=C][C][C][=C][Branch1][C][F][C][=C][C][=C][Ring1][#Branch1][Cl][C][=C][Branch2][Ring1][=Branch1][C][=C][Branch1][#Branch2][C][=C][Ring1][=Branch1][N][=Branch1][C][=O][=O][C][Branch1][C][F][Branch1][C][F][F][N][=Branch1][C][=O][=O],"InChI=1S/C16H12ClF4N3O4/c1-2-22(8-10-11(17)4-3-5-12(10)18)15-13(23(25)26)6-9(16(19,20)21)7-14(15)24(27)28/h3-7H,2,8H2,1H3"
Fluometuron,-3.43,CN(C)C(=O)Nc1cccc(c1)C(F)(F)F,[C][N][Branch1][C][C][C][=Branch1][C][=O][N][C][=C][C][=C][C][=Branch1][Ring2][=C][Ring1][=Branch1][C][Branch1][C][F][Branch1][C][F][F],"InChI=1S/C10H11F3N2O/c1-15(2)9(16)14-8-5-3-4-7(6-8)10(11,12)13/h3-6H,1-2H3,(H,14,16)"
Fluoranthene,-6,c1ccc2c(c1)c3cccc4cccc2c34,[C][=C][C][=C][C][=Branch1][Ring2][=C][Ring1][=Branch1][C][=C][C][=C][C][=C][C][=C][C][Ring1][N][=C][Ring1][#Branch2][Ring1][=Branch1],InChI=1S/C16H10/c1-2-8-13-12(7-1)14-9-3-5-11-6-4-10-15(13)16(11)14/h1-10H
Fluorene ,-5,C1c2ccccc2c3ccccc13,[C][C][=C][C][=C][C][=C][Ring1][=Branch1][C][=C][C][=C][C][=C][Ring1][=N][Ring1][=Branch1],"InChI=1S/C13H10/c1-3-7-12-10(5-1)9-11-6-2-4-8-13(11)12/h1-8H,9H2"
Fluorobenzene,-1.8,Fc1ccccc1,[F][C][=C][C][=C][C][=C][Ring1][=Branch1],InChI=1S/C6H5F/c7-6-4-2-1-3-5-6/h1-5H
Fluoromethalone,-4.099,CC1CC2C3CCC(O)(C(=O)C)C3(C)CC(O)C2(F)C4(C)C=CC(=O)C=C14,[C][C][C][C][C][C][C][C][Branch1][C][O][Branch1][=Branch1][C][=Branch1][C][=O][C][C][Ring1][=Branch2][Branch1][C][C][C][C][Branch1][C][O][C][Ring1][#C][Branch1][C][F][C][Branch1][C][C][C][=C][C][=Branch1][C][=O][C][=C][Ring2][Ring1][#Branch2][Ring1][Branch2],"InChI=1S/C22H29FO4/c1-12-9-17-15-6-8-21(27,13(2)24)20(15,4)11-18(26)22(17,23)19(3)7-5-14(25)10-16(12)19/h5,7,10,12,15,17-18,26-27H,6,8-9,11H2,1-4H3"
Fluorometuron,-3.32,CN(C)C(=O)Nc1cccc(c1)C(F)(F)F,[C][N][Branch1][C][C][C][=Branch1][C][=O][N][C][=C][C][=C][C][=Branch1][Ring2][=C][Ring1][=Branch1][C][Branch1][C][F][Branch1][C][F][F],"InChI=1S/C10H11F3N2O/c1-15(2)9(16)14-8-5-3-4-7(6-8)10(11,12)13/h3-6H,1-2H3,(H,14,16)"
Fluridone,-4.445,Cn2cc(c1ccccc1)c(=O)c(c2)c3cccc(c3)C(F)(F)F,[C][N][C][=C][Branch1][=Branch2][C][=C][C][=C][C][=C][Ring1][=Branch1][C][=Branch1][C][=O][C][=Branch1][Ring2][=C][Ring1][=N][C][=C][C][=C][C][=Branch1][Ring2][=C][Ring1][=Branch1][C][Branch1][C][F][Branch1][C][F][F],"InChI=1S/C19H14F3NO/c1-23-11-16(13-6-3-2-4-7-13)18(24)17(12-23)14-8-5-9-15(10-14)19(20,21)22/h2-12H,1H3"
Flurochloridone,-4.047,FC(F)(F)c1cccc(c1)N2CC(CCl)C(Cl)C2=O,[F][C][Branch1][C][F][Branch1][C][F][C][=C][C][=C][C][=Branch1][Ring2][=C][Ring1][=Branch1][N][C][C][Branch1][Ring1][C][Cl][C][Branch1][C][Cl][C][Ring1][Branch2][=O],"InChI=1S/C12H10Cl2F3NO/c13-5-7-6-18(11(19)10(7)14)9-3-1-2-8(4-9)12(15,16)17/h1-4,7,10H,5-6H2"
Flutriafol,-3.37,OC(Cn1cncn1)(c2ccc(F)cc2)c3ccccc3F,[O][C][Branch1][=Branch2][C][N][C][=N][C][=N][Ring1][Branch1][Branch1][N][C][=C][C][=C][Branch1][C][F][C][=C][Ring1][#Branch1][C][=C][C][=C][C][=C][Ring1][=Branch1][F],"InChI=1S/C16H13F2N3O/c17-13-7-5-12(6-8-13)16(22,9-21-11-19-10-20-21)14-3-1-2-4-15(14)18/h1-8,10-11,22H,9H2"
Fluvalinate,-8.003,CC(C)C(Nc1ccc(cc1Cl)C(F)(F)F)C(=O)OC(C#N)c2cccc(Oc3ccccc3)c2,[C][C][Branch1][C][C][C][Branch2][Ring1][Branch1][N][C][=C][C][=C][Branch1][=Branch1][C][=C][Ring1][=Branch1][Cl][C][Branch1][C][F][Branch1][C][F][F][C][=Branch1][C][=O][O][C][Branch1][Ring1][C][#N][C][=C][C][=C][C][Branch1][#Branch2][O][C][=C][C][=C][C][=C][Ring1][=Branch1][=C][Ring1][=N],"InChI=1S/C26H22ClF3N2O3/c1-16(2)24(32-22-12-11-18(14-21(22)27)26(28,29)30)25(33)35-23(15-31)17-7-6-10-20(13-17)34-19-8-4-3-5-9-19/h3-14,16,23-24,32H,1-2H3"
Formetanate,-2.34,CNC(=O)Oc1cccc(N=CN(C)C)c1,[C][N][C][=Branch1][C][=O][O][C][=C][C][=C][C][Branch1][Branch2][N][=C][N][Branch1][C][C][C][=C][Ring1][O],"InChI=1S/C11H15N3O2/c1-12-11(15)16-10-6-4-5-9(7-10)13-8-14(2)3/h4-8H,1-3H3,(H,12,15)"
Formothion,-1.995,COP(=S)(OC)SCC(=O)N(C)C=O,[C][O][P][=Branch1][C][=S][Branch1][Ring1][O][C][S][C][C][=Branch1][C][=O][N][Branch1][C][C][C][=O],"InChI=1S/C6H12NO4PS2/c1-7(5-8)6(9)4-14-12(13,10-2)11-3/h5H,4H2,1-3H3"
Fructose,0.64,OCC1OC(O)(CO)C(O)C1O,[O][C][C][O][C][Branch1][C][O][Branch1][Ring1][C][O][C][Branch1][C][O][C][Ring1][=Branch2][O],"InChI=1S/C6H12O6/c7-1-3-4(9)5(10)6(11,2-8)12-3/h3-5,7-11H,1-2H2"
Furane,-0.82,c1ccoc1,[C][C][=C][O][C][=Ring1][Branch1],InChI=1S/C4H4O/c1-2-4-5-3-1/h1-4H
Furfural,-0.1,O=Cc1ccco1,[O][=C][C][=C][C][=C][O][Ring1][Branch1],InChI=1S/C5H4O2/c6-4-5-2-1-3-7-5/h1-4H
gentisin,-2.943,c1c(O)C2C(=O)C3cc(O)ccC3OC2cc1(OC),[C][=C][Branch1][C][O][C][C][=Branch1][C][=O][C][C][=C][Branch1][C][O][C][=C][C][Ring1][#Branch1][O][C][Ring1][N][C][=C][Ring1][P][O][C],"InChI=1S/C14H14O5/c1-18-8-5-10(16)13-12(6-8)19-11-3-2-7(15)4-9(11)14(13)17/h2-6,9,11-13,15-16H,1H3"
Glafenine,-4.571,OCC(O)COC(=O)c1ccccc1Nc2ccnc3cc(Cl)ccc23,[O][C][C][Branch1][C][O][C][O][C][=Branch1][C][=O][C][=C][C][=C][C][=C][Ring1][=Branch1][N][C][=C][C][=N][C][=C][C][Branch1][C][Cl][=C][C][=C][Ring1][O][Ring1][#Branch1],"InChI=1S/C19H17ClN2O4/c20-12-5-6-14-17(7-8-21-18(14)9-12)22-16-4-2-1-3-15(16)19(25)26-11-13(24)10-23/h1-9,13,23-24H,10-11H2,(H,21,22)"
glucose,0.74,OCC1OC(O)C(O)C(O)C1O,[O][C][C][O][C][Branch1][C][O][C][Branch1][C][O][C][Branch1][C][O][C][Ring1][=Branch2][O],"InChI=1S/C6H12O6/c7-1-2-3(8)4(9)5(10)6(11)12-2/h2-11H,1H2"
Glycerol,1.12,OCC(O)CO,[O][C][C][Branch1][C][O][C][O],"InChI=1S/C3H8O3/c4-1-3(6)2-5/h3-6H,1-2H2"
Glyceryl triacetate,-0.6,CC(=O)OCC(COC(=O)C)OC(=O)C,[C][C][=Branch1][C][=O][O][C][C][Branch1][Branch2][C][O][C][=Branch1][C][=O][C][O][C][=Branch1][C][=O][C],"InChI=1S/C9H14O6/c1-6(10)13-4-9(15-8(3)12)5-14-7(2)11/h9H,4-5H2,1-3H3"
Griseofulvin,-3.246,COC1=CC(=O)CC(C)C13Oc2c(Cl)c(OC)cc(OC)c2C3=O,[C][O][C][=C][C][=Branch1][C][=O][C][C][Branch1][C][C][C][Ring1][Branch2][O][C][=C][Branch1][C][Cl][C][Branch1][Ring1][O][C][=C][C][Branch1][Ring1][O][C][=C][Ring1][O][C][Ring1][=C][=O],"InChI=1S/C17H17ClO6/c1-8-5-9(19)6-12(23-4)17(8)16(20)13-10(21-2)7-11(22-3)14(18)15(13)24-17/h6-8H,5H2,1-4H3"
hematein,-2.7,c1cc(O)c(O)c2OCC3(O)CC4=CC(=O)C(O)=CC4=C3c21,[C][=C][C][Branch1][C][O][=C][Branch1][C][O][C][O][C][C][Branch1][C][O][C][C][=C][C][=Branch1][C][=O][C][Branch1][C][O][=C][C][Ring1][Branch2][=C][Ring1][N][C][=Ring1][S][Ring2][Ring1][=Branch1],"InChI=1S/C16H12O6/c17-10-2-1-8-13-9-4-12(19)11(18)3-7(9)5-16(13,21)6-22-15(8)14(10)20/h1-4,17,19-21H,5-6H2"
Heptachlor,-6.317,ClC1C=CC2C1C3(Cl)C(=C(Cl)C2(Cl)C3(Cl)Cl)Cl,[Cl][C][C][=C][C][C][Ring1][Branch1][C][Branch1][C][Cl][C][=Branch2][Ring1][C][=C][Branch1][C][Cl][C][Ring1][Branch2][Branch1][C][Cl][C][Ring1][Branch2][Branch1][C][Cl][Cl][Cl],"InChI=1S/C10H5Cl7/c11-4-2-1-3-5(4)9(15)7(13)6(12)8(3,14)10(9,16)17/h1-5H"
Heptane,-4.53,CCCCCCC,[C][C][C][C][C][C][C],"InChI=1S/C7H16/c1-3-5-7-6-4-2/h3-7H2,1-2H3"
"Hexachloro-1,3-butadiene",-4.92,ClC(=C(Cl)C(=C(Cl)Cl)Cl)Cl,[Cl][C][=Branch1][=C][=C][Branch1][C][Cl][C][=Branch1][=Branch1][=C][Branch1][C][Cl][Cl][Cl][Cl],InChI=1S/C4Cl6/c5-1(3(7)8)2(6)4(9)10