Compound,solubility_log in mol/L (solubility expressed as a logarithm in mol/L),SMILES,SELFIES,InChI
Cortisone,-3.11,CC12CC(=O)C3C(CCC4=CC(=O)CCC34C)C2CCC1(O)C(=O)CO,[C][C][C][C][=Branch1][C][=O][C][C][Branch1][P][C][C][C][=C][C][=Branch1][C][=O][C][C][C][Ring1][O][Ring1][#Branch1][C][C][Ring1][P][C][C][C][Ring2][Ring1][Ring2][Branch1][C][O][C][=Branch1][C][=O][C][O],"InChI=1S/C21H28O5/c1-19-7-5-13(23)9-12(19)3-4-14-15-6-8-21(26,17(25)11-22)20(15,2)10-16(24)18(14)19/h9,14-15,18,22,26H,3-8,10-11H2,1-2H3"
Coumachlor,-5.839,CC(=O)CC(c1ccc(Cl)cc1)c2c(O)c3ccccc3oc2=O,[C][C][=Branch1][C][=O][C][C][Branch1][N][C][=C][C][=C][Branch1][C][Cl][C][=C][Ring1][#Branch1][C][=C][Branch1][C][O][C][=C][C][=C][C][=C][Ring1][=Branch1][O][C][Ring1][O][=O],"InChI=1S/C19H15ClO4/c1-11(21)10-15(12-6-8-13(20)9-7-12)17-18(22)14-4-2-3-5-16(14)24-19(17)23/h2-9,15,22H,10H2,1H3"
Coumaphos,-5.382,CCOP(=S)(OCC)Oc2ccc1oc(=O)c(Cl)c(C)c1c2,[C][C][O][P][=Branch1][C][=S][Branch1][Ring2][O][C][C][O][C][=C][C][=C][O][C][=Branch1][C][=O][C][Branch1][C][Cl][=C][Branch1][C][C][C][Ring1][=Branch2][=C][Ring1][=N],"InChI=1S/C14H16ClO5PS/c1-4-17-21(22,18-5-2)20-10-6-7-12-11(8-10)9(3)13(15)14(16)19-12/h6-8H,4-5H2,1-3H3"
Cyanazine,-3.15,CCNc1nc(Cl)nc(NC(C)(C)C#N)n1,[C][C][N][C][=N][C][Branch1][C][Cl][=N][C][Branch1][O][N][C][Branch1][C][C][Branch1][C][C][C][#N][=N][Ring1][=N],"InChI=1S/C9H13ClN6/c1-4-12-7-13-6(10)14-8(15-7)16-9(2,3)5-11/h4H2,1-3H3,(H2,12,13,14,15,16)"
Cyclobutyl-5-spirobarbituric acid,-1.655,O=C2NC(=O)C1(CCC1)C(=O)N2,[O][=C][N][C][=Branch1][C][=O][C][Branch1][=Branch1][C][C][C][Ring1][Ring2][C][=Branch1][C][=O][N][Ring1][O],"InChI=1S/C7H8N2O3/c10-4-7(2-1-3-7)5(11)9-6(12)8-4/h1-3H2,(H2,8,9,10,11,12)"
Cycloheptane,-3.51,C1CCCCCC1,[C][C][C][C][C][C][C][Ring1][#Branch1],InChI=1S/C7H14/c1-2-4-6-7-5-3-1/h1-7H2
Cycloheptanol,-0.88,OC1CCCCCC1,[O][C][C][C][C][C][C][C][Ring1][#Branch1],"InChI=1S/C7H14O/c8-7-5-3-1-2-4-6-7/h7-8H,1-6H2"
Cycloheptene,-3.18,C1CCC=CCC1,[C][C][C][C][=C][C][C][Ring1][#Branch1],"InChI=1S/C7H12/c1-2-4-6-7-5-3-1/h1-2H,3-7H2"
Cyclohexane,-3.1,C1CCCCC1,[C][C][C][C][C][C][Ring1][=Branch1],InChI=1S/C6H12/c1-2-4-6-5-3-1/h1-6H2
Cyclohexanol ,-0.44,OC1CCCCC1,[O][C][C][C][C][C][C][Ring1][=Branch1],"InChI=1S/C6H12O/c7-6-4-2-1-3-5-6/h6-7H,1-5H2"
Cyclohexanone,-0.6,O=C1CCCCC1,[O][=C][C][C][C][C][C][Ring1][=Branch1],InChI=1S/C6H10O/c7-6-4-2-1-3-5-6/h1-5H2
Cyclohexene,-2.59,C1CCC=CC1,[C][C][C][C][=C][C][Ring1][=Branch1],"InChI=1S/C6H10/c1-2-4-6-5-3-1/h1-2H,3-6H2"
Cyclohexyl-5-spirobarbituric acid,-3.06,O=C2NC(=O)C1(CCCCC1)C(=O)N2,[O][=C][N][C][=Branch1][C][=O][C][Branch1][Branch2][C][C][C][C][C][Ring1][=Branch1][C][=Branch1][C][=O][N][Ring1][=N],"InChI=1S/C9H12N2O3/c12-6-9(4-2-1-3-5-9)7(13)11-8(14)10-6/h1-5H2,(H2,10,11,12,13,14)"
Cyclooctane,-4.15,C1CCCCCCC1,[C][C][C][C][C][C][C][C][Ring1][Branch2],InChI=1S/C8H16/c1-2-4-6-8-7-5-3-1/h1-8H2
Cyclooctanol,-1.29,OC1CCCCCCC1,[O][C][C][C][C][C][C][C][C][Ring1][Branch2],"InChI=1S/C8H16O/c9-8-6-4-2-1-3-5-7-8/h8-9H,1-7H2"
Cyclooctyl-5-spirobarbituric acid,-2.982,O=C2NC(=O)C1(CCCCCCC1)C(=O)N2,[O][=C][N][C][=Branch1][C][=O][C][Branch1][#Branch2][C][C][C][C][C][C][C][Ring1][Branch2][C][=Branch1][C][=O][N][Ring1][#C],"InChI=1S/C11H16N2O3/c14-8-11(9(15)13-10(16)12-8)6-4-2-1-3-5-7-11/h1-7H2,(H2,12,13,14,15,16)"
Cyclopentane ,-2.64,C1CCCC1,[C][C][C][C][C][Ring1][Branch1],InChI=1S/C5H10/c1-2-4-5-3-1/h1-5H2
Cyclopentene ,-2.1,C1CC=CC1,[C][C][C][=C][C][Ring1][Branch1],"InChI=1S/C5H8/c1-2-4-5-3-1/h1-2H,3-5H2"
Cyclopentyl-5-spirobarbituric acid,-2.349,O=C2NC(=O)C1(CCCC1)C(=O)N2,[O][=C][N][C][=Branch1][C][=O][C][Branch1][#Branch1][C][C][C][C][Ring1][Branch1][C][=Branch1][C][=O][N][Ring1][N],"InChI=1S/C8H10N2O3/c11-5-8(3-1-2-4-8)6(12)10-7(13)9-5/h1-4H2,(H2,9,10,11,12,13)"
Cycluron,-2.218,CN(C)C(=O)NC1CCCCCCC1,[C][N][Branch1][C][C][C][=Branch1][C][=O][N][C][C][C][C][C][C][C][C][Ring1][Branch2],"InChI=1S/C11H22N2O/c1-13(2)11(14)12-10-8-6-4-3-5-7-9-10/h10H,3-9H2,1-2H3,(H,12,14)"
Cyfluthrin,-7.337,CC1(C)C(C=C(Cl)Cl)C1C(=O)OC(C#N)c2ccc(F)c(Oc3ccccc3)c2,[C][C][Branch1][C][C][C][Branch1][#Branch1][C][=C][Branch1][C][Cl][Cl][C][Ring1][Branch2][C][=Branch1][C][=O][O][C][Branch1][Ring1][C][#N][C][=C][C][=C][Branch1][C][F][C][Branch1][#Branch2][O][C][=C][C][=C][C][=C][Ring1][=Branch1][=C][Ring1][=C],"InChI=1S/C22H18Cl2FNO3/c1-22(2)15(11-19(23)24)20(22)21(27)29-18(12-26)13-8-9-16(25)17(10-13)28-14-6-4-3-5-7-14/h3-11,15,18,20H,1-2H3"
Cyhalothrin,-8.176,CC1(C)C(C=C(Cl)C(F)(F)F)C1C(=O)OC(C#N)c2cccc(Oc3ccccc3)c2,[C][C][Branch1][C][C][C][Branch1][=C][C][=C][Branch1][C][Cl][C][Branch1][C][F][Branch1][C][F][F][C][Ring1][O][C][=Branch1][C][=O][O][C][Branch1][Ring1][C][#N][C][=C][C][=C][C][Branch1][#Branch2][O][C][=C][C][=C][C][=C][Ring1][=Branch1][=C][Ring1][=N],"InChI=1S/C23H19ClF3NO3/c1-22(2)17(12-19(24)23(25,26)27)20(22)21(29)31-18(13-28)14-7-6-10-16(11-14)30-15-8-4-3-5-9-15/h3-12,17-18,20H,1-2H3"
Cypermethrin,-8.017,CC1(C)C(C=C(Cl)Cl)C1C(=O)OC(C#N)c2cccc(Oc3ccccc3)c2,[C][C][Branch1][C][C][C][Branch1][#Branch1][C][=C][Branch1][C][Cl][Cl][C][Ring1][Branch2][C][=Branch1][C][=O][O][C][Branch1][Ring1][C][#N][C][=C][C][=C][C][Branch1][#Branch2][O][C][=C][C][=C][C][=C][Ring1][=Branch1][=C][Ring1][=N],"InChI=1S/C22H19Cl2NO3/c1-22(2)17(12-19(23)24)20(22)21(26)28-18(13-25)14-7-6-10-16(11-14)27-15-8-4-3-5-9-15/h3-12,17-18,20H,1-2H3"
Danazol,-5.507,CC23Cc1cnoc1C=C2CCC4C3CCC5(C)C4CCC5(O)C#C,[C][C][C][C][C][=N][O][C][=Ring1][Branch1][C][=C][Ring1][=Branch2][C][C][C][C][Ring1][=N][C][C][C][Branch1][C][C][C][Ring1][#Branch1][C][C][C][Ring1][=Branch1][Branch1][C][O][C][#C],"InChI=1S/C22H27NO2/c1-4-22(24)10-8-18-16-6-5-15-11-19-14(13-23-25-19)12-20(15,2)17(16)7-9-21(18,22)3/h1,11,13,16-18,24H,5-10,12H2,2-3H3"
Dapsone,-3.094,Nc1ccc(cc1)S(=O)(=O)c2ccc(N)cc2,[N][C][=C][C][=C][Branch1][Branch1][C][=C][Ring1][=Branch1][S][=Branch1][C][=O][=Branch1][C][=O][C][=C][C][=C][Branch1][C][N][C][=C][Ring1][#Branch1],"InChI=1S/C12H12N2O2S/c13-9-1-5-11(6-2-9)17(15,16)12-7-3-10(14)4-8-12/h1-8H,13-14H2"
DDD,-7.2,ClC(Cl)C(c1ccc(Cl)cc1)c2ccc(Cl)cc2,[Cl][C][Branch1][C][Cl][C][Branch1][N][C][=C][C][=C][Branch1][C][Cl][C][=C][Ring1][#Branch1][C][=C][C][=C][Branch1][C][Cl][C][=C][Ring1][#Branch1],"InChI=1S/C14H10Cl4/c15-11-5-1-9(2-6-11)13(14(17)18)10-3-7-12(16)8-4-10/h1-8,13-14H"
DDE,-6.9,ClC(Cl)=C(c1ccc(Cl)cc1)c2ccc(Cl)cc2,[Cl][C][Branch1][C][Cl][=C][Branch1][N][C][=C][C][=C][Branch1][C][Cl][C][=C][Ring1][#Branch1][C][=C][C][=C][Branch1][C][Cl][C][=C][Ring1][#Branch1],InChI=1S/C14H8Cl4/c15-11-5-1-9(2-6-11)13(14(17)18)10-3-7-12(16)8-4-10/h1-8H
DDT,-7.15,Clc1ccc(cc1)C(c2ccc(Cl)cc2)C(Cl)(Cl)Cl,[Cl][C][=C][C][=C][Branch1][Branch1][C][=C][Ring1][=Branch1][C][Branch1][N][C][=C][C][=C][Branch1][C][Cl][C][=C][Ring1][#Branch1][C][Branch1][C][Cl][Branch1][C][Cl][Cl],"InChI=1S/C14H9Cl5/c15-11-5-1-9(2-6-11)13(14(17,18)19)10-3-7-12(16)8-4-10/h1-8,13H"
Decalin,-5.19,C1CCC2CCCCC2C1,[C][C][C][C][C][C][C][C][C][Ring1][=Branch1][C][Ring1][#Branch2],"InChI=1S/C10H18/c1-2-6-10-8-4-3-7-9(10)5-1/h9-10H,1-8H2"
DEF,-5.14,CCCCSP(=O)(SCCCC)SCCCC,[C][C][C][C][S][P][=Branch1][C][=O][Branch1][=Branch1][S][C][C][C][C][S][C][C][C][C],"InChI=1S/C12H27OPS3/c1-4-7-10-15-14(13,16-11-8-5-2)17-12-9-6-3/h4-12H2,1-3H3"
Deltamethrin,-8.402,CC1(C)C(C=C(Br)Br)C1C(=O)OC(C#N)c2cccc(Oc3ccccc3)c2,[C][C][Branch1][C][C][C][Branch1][#Branch1][C][=C][Branch1][C][Br][Br][C][Ring1][Branch2][C][=Branch1][C][=O][O][C][Branch1][Ring1][C][#N][C][=C][C][=C][C][Branch1][#Branch2][O][C][=C][C][=C][C][=C][Ring1][=Branch1][=C][Ring1][=N],"InChI=1S/C22H19Br2NO3/c1-22(2)17(12-19(23)24)20(22)21(26)28-18(13-25)14-7-6-10-16(11-14)27-15-8-4-3-5-9-15/h3-12,17-18,20H,1-2H3"
Deoxycorticosterone,-3.45,CC12CCC3C(CCC4=CC(=O)CCC34C)C2CCC1C(=O)CO,[C][C][C][C][C][C][Branch1][P][C][C][C][=C][C][=Branch1][C][=O][C][C][C][Ring1][O][Ring1][#Branch1][C][C][Ring1][S][C][C][C][Ring2][Ring1][Ring1][C][=Branch1][C][=O][C][O],"InChI=1S/C21H30O3/c1-20-9-7-14(23)11-13(20)3-4-15-16-5-6-18(19(24)12-22)21(16,2)10-8-17(15)20/h11,15-18,22H,3-10,12H2,1-2H3"
Dexamethasone,-3.59,CC1CC2C3CCC4=CC(=O)C=CC4(C)C3(F)C(O)CC2(C)C1(O)C(=O)CO,[C][C][C][C][C][C][C][C][=C][C][=Branch1][C][=O][C][=C][C][Ring1][#Branch1][Branch1][C][C][C][Ring1][N][Branch1][C][F][C][Branch1][C][O][C][C][Ring2][Ring1][C][Branch1][C][C][C][Ring2][Ring1][=Branch1][Branch1][C][O][C][=Branch1][C][=O][C][O],"InChI=1S/C22H29FO5/c1-12-8-16-15-5-4-13-9-14(25)6-7-19(13,2)21(15,23)17(26)10-20(16,3)22(12,28)18(27)11-24/h6-7,9,12,15-17,24,26,28H,4-5,8,10-11H2,1-3H3"
D-fenchone,-1.85,CC2(C)C1CCC(C)(C1)C2=O,[C][C][Branch1][C][C][C][C][C][C][Branch1][C][C][Branch1][Ring2][C][Ring1][=Branch1][C][Ring1][=Branch2][=O],"InChI=1S/C10H16O/c1-9(2)7-4-5-10(3,6-7)8(9)11/h7H,4-6H2,1-3H3"
Di(2-ethylhexyl)-phthalate,-6.96,CCCCC(CC)COC(=O)c1ccccc1C(=O)OCC(CC)CCCC,[C][C][C][C][C][Branch1][Ring1][C][C][C][O][C][=Branch1][C][=O][C][=C][C][=C][C][=C][Ring1][=Branch1][C][=Branch1][C][=O][O][C][C][Branch1][Ring1][C][C][C][C][C][C],"InChI=1S/C24H38O4/c1-5-9-13-19(7-3)17-27-23(25)21-15-11-12-16-22(21)24(26)28-18-20(8-4)14-10-6-2/h11-12,15-16,19-20H,5-10,13-14,17-18H2,1-4H3"
Dialifor,-6.34,CCOP(=S)(OCC)SC(CCl)N1C(=O)c2ccccc2C1=O,[C][C][O][P][=Branch1][C][=S][Branch1][Ring2][O][C][C][S][C][Branch1][Ring1][C][Cl][N][C][=Branch1][C][=O][C][=C][C][=C][C][=C][Ring1][=Branch1][C][Ring1][#Branch2][=O],"InChI=1S/C14H17ClNO4PS2/c1-3-19-21(22,20-4-2)23-12(9-15)16-13(17)10-7-5-6-8-11(10)14(16)18/h5-8,12H,3-4,9H2,1-2H3"
Dialifos,-6.34,CCOP(=S)(OCC)SC(CCl)N2C(=O)c1ccccc1C2=O,[C][C][O][P][=Branch1][C][=S][Branch1][Ring2][O][C][C][S][C][Branch1][Ring1][C][Cl][N][C][=Branch1][C][=O][C][=C][C][=C][C][=C][Ring1][=Branch1][C][Ring1][#Branch2][=O],"InChI=1S/C14H17ClNO4PS2/c1-3-19-21(22,20-4-2)23-12(9-15)16-13(17)10-7-5-6-8-11(10)14(16)18/h5-8,12H,3-4,9H2,1-2H3"
Diallate,-4.286,CC(C)N(C(C)C)C(=O)SCC(=CCl)Cl,[C][C][Branch1][C][C][N][Branch1][=Branch1][C][Branch1][C][C][C][C][=Branch1][C][=O][S][C][C][=Branch1][Ring1][=C][Cl][Cl],"InChI=1S/C10H17Cl2NOS/c1-7(2)13(8(3)4)10(14)15-6-9(12)5-11/h5,7-8H,6H2,1-4H3"
Diazepam,-3.754,CN2C(=O)CN=C(c1ccccc1)c3cc(Cl)ccc23,[C][N][C][=Branch1][C][=O][C][N][=C][Branch1][=Branch2][C][=C][C][=C][C][=C][Ring1][=Branch1][C][=C][C][Branch1][C][Cl][=C][C][=C][Ring2][Ring1][Ring1][Ring1][#Branch1],"InChI=1S/C16H13ClN2O/c1-19-14-8-7-12(17)9-13(14)16(18-10-15(19)20)11-5-3-2-4-6-11/h2-9H,10H2,1H3"
Diazinon,-3.64,CCOP(=S)(OCC)Oc1cc(C)nc(n1)C(C)C,[C][C][O][P][=Branch1][C][=S][Branch1][Ring2][O][C][C][O][C][=C][C][Branch1][C][C][=N][C][=Branch1][Ring2][=N][Ring1][#Branch1][C][Branch1][C][C][C],"InChI=1S/C12H21N2O3PS/c1-6-15-18(19,16-7-2)17-11-8-10(5)13-12(14-11)9(3)4/h8-9H,6-7H2,1-5H3"
Dibenzofurane,-4.6,o1c2ccccc2c3ccccc13,[O][C][=C][C][=C][C][=C][Ring1][=Branch1][C][=C][C][=C][C][=C][Ring1][=N][Ring1][=Branch1],InChI=1S/C12H8O/c1-3-7-11-9(5-1)10-6-2-4-8-12(10)13-11/h1-8H
Dibenzothiophene,-4.38,c1ccc2c(c1)sc3ccccc23,[C][=C][C][=C][C][=Branch1][Ring2][=C][Ring1][=Branch1][S][C][=C][C][=C][C][=C][Ring1][#Branch2][Ring1][=Branch1],InChI=1S/C12H8S/c1-3-7-11-9(5-1)10-6-2-4-8-12(10)13-11/h1-8H
Dibromomethane,-1.17,BrCBr,[Br][C][Br],InChI=1S/CH2Br2/c2-1-3/h1H2
Dibutyl ether ,-1.85,CCCCOCCCC,[C][C][C][C][O][C][C][C][C],"InChI=1S/C8H18O/c1-3-5-7-9-8-6-4-2/h3-8H2,1-2H3"
dibutyl sebacate,-3.896,CCCCOC(=O)CCCCCCCCC(=O)OCCCC,[C][C][C][C][O][C][=Branch1][C][=O][C][C][C][C][C][C][C][C][C][=Branch1][C][=O][O][C][C][C][C],"InChI=1S/C18H34O4/c1-3-5-15-21-17(19)13-11-9-7-8-10-12-14-18(20)22-16-6-4-2/h3-16H2,1-2H3"
Dicapthon,-4.31,COP(=S)(OC)Oc1ccc(cc1Cl)N(=O)=O,[C][O][P][=Branch1][C][=S][Branch1][Ring1][O][C][O][C][=C][C][=C][Branch1][=Branch1][C][=C][Ring1][=Branch1][Cl][N][=Branch1][C][=O][=O],"InChI=1S/C8H9ClNO5PS/c1-13-16(17,14-2)15-8-4-3-6(10(11)12)5-7(8)9/h3-5H,1-2H3"
Dichloromethane,-0.63,ClCCl,[Cl][C][Cl],InChI=1S/CH2Cl2/c2-1-3/h1H2
Dichlorophen,-3.953,Oc1ccc(Cl)cc1Cc2cc(Cl)ccc2O,[O][C][=C][C][=C][Branch1][C][Cl][C][=C][Ring1][#Branch1][C][C][=C][C][Branch1][C][Cl][=C][C][=C][Ring1][#Branch1][O],"InChI=1S/C13H10Cl2O2/c14-10-1-3-12(16)8(6-10)5-9-7-11(15)2-4-13(9)17/h1-4,6-7,16-17H,5H2"
Dicofol,-5.666,OC(c1ccc(Cl)cc1)(c2ccc(Cl)cc2)C(Cl)(Cl)Cl,[O][C][Branch1][N][C][=C][C][=C][Branch1][C][Cl][C][=C][Ring1][#Branch1][Branch1][N][C][=C][C][=C][Branch1][C][Cl][C][=C][Ring1][#Branch1][C][Branch1][C][Cl][Branch1][C][Cl][Cl],"InChI=1S/C14H9Cl5O/c15-11-5-1-9(2-6-11)13(20,14(17,18)19)10-3-7-12(16)8-4-10/h1-8,20H"
Dieldrin,-6.29,ClC4=C(Cl)C5(Cl)C3C1CC(C2OC12)C3C4(Cl)C5(Cl)Cl,[Cl][C][=C][Branch1][C][Cl][C][Branch1][C][Cl][C][C][C][C][Branch1][Branch2][C][O][C][Ring1][=Branch1][Ring1][Ring1][C][Ring1][Branch2][C][Ring1][=C][Branch1][C][Cl][C][Ring1][=N][Branch1][C][Cl][Cl],"InChI=1S/C12H8Cl6O/c13-8-9(14)11(16)5-3-1-2(6-7(3)19-6)4(5)10(8,15)12(11,17)18/h2-7H,1H2"
Dienestrol,-4.95,CC=C(C(=CC)c1ccc(O)cc1)c2ccc(O)cc2,[C][C][=C][Branch1][P][C][=Branch1][Ring1][=C][C][C][=C][C][=C][Branch1][C][O][C][=C][Ring1][#Branch1][C][=C][C][=C][Branch1][C][O][C][=C][Ring1][#Branch1],"InChI=1S/C18H18O2/c1-3-17(13-5-9-15(19)10-6-13)18(4-2)14-7-11-16(20)12-8-14/h3-12,19-20H,1-2H3"
Dienochlor,-7.278,ClC1=C(Cl)C(Cl)(C(=C1Cl)Cl)C2(Cl)C(=C(Cl)C(=C2Cl)Cl)Cl,[Cl][C][=C][Branch1][C][Cl][C][Branch1][C][Cl][Branch1][=Branch2][C][=Branch1][Branch1][=C][Ring1][#Branch1][Cl][Cl][C][Branch1][C][Cl][C][=Branch1][=N][=C][Branch1][C][Cl][C][=Branch1][Branch1][=C][Ring1][#Branch1][Cl][Cl][Cl],"InChI=1S/C10Cl10/c11-1-2(12)6(16)9(19,5(1)15)10(20)7(17)3(13)4(14)8(10)18"
Diethyl ether ,-0.09,CCOCC,[C][C][O][C][C],"InChI=1S/C4H10O/c1-3-5-4-2/h3-4H2,1-2H3"
Diethyl phthalate ,-2.35,CCOC(=O)c1ccccc1C(=O)OCC,[C][C][O][C][=Branch1][C][=O][C][=C][C][=C][C][=C][Ring1][=Branch1][C][=Branch1][C][=O][O][C][C],"InChI=1S/C12H14O4/c1-3-15-11(13)9-7-5-6-8-10(9)12(14)16-4-2/h5-8H,3-4H2,1-2H3"
Diethyl sulfide,-1.34,CCSCC,[C][C][S][C][C],"InChI=1S/C4H10S/c1-3-5-4-2/h3-4H2,1-2H3"
Diethyldisulfide,-2.42,CCSSCC,[C][C][S][S][C][C],"InChI=1S/C4H10S2/c1-3-5-6-4-2/h3-4H2,1-2H3"
Difenoxuron,-4.16,COc2ccc(Oc1ccc(NC(=O)N(C)C)cc1)cc2,[C][O][C][=C][C][=C][Branch2][Ring1][=Branch1][O][C][=C][C][=C][Branch1][O][N][C][=Branch1][C][=O][N][Branch1][C][C][C][C][=C][Ring1][N][C][=C][Ring2][Ring1][Ring1],"InChI=1S/C16H18N2O3/c1-18(2)16(19)17-12-4-6-14(7-5-12)21-15-10-8-13(20-3)9-11-15/h4-11H,1-3H3,(H,17,19)"
difluron,-6.02,Fc1cccc(F)c1C(=O)NC(=O)Nc2ccc(Cl)cc2,[F][C][=C][C][=C][C][Branch1][C][F][=C][Ring1][#Branch1][C][=Branch1][C][=O][N][C][=Branch1][C][=O][N][C][=C][C][=C][Branch1][C][Cl][C][=C][Ring1][#Branch1],"InChI=1S/C14H9ClF2N2O2/c15-8-4-6-9(7-5-8)18-14(21)19-13(20)12-10(16)2-1-3-11(12)17/h1-7H,(H2,18,19,20,21)"
Dihexyl phthalate,-6.144,CCCCCCOC(=O)c1ccccc1C(=O)OCCCCCC,[C][C][C][C][C][C][O][C][=Branch1][C][=O][C][=C][C][=C][C][=C][Ring1][=Branch1][C][=Branch1][C][=O][O][C][C][C][C][C][C],"InChI=1S/C20H30O4/c1-3-5-7-11-15-23-19(21)17-13-9-10-14-18(17)20(22)24-16-12-8-6-4-2/h9-10,13-14H,3-8,11-12,15-16H2,1-2H3"
Diiodomethane,-2.34,ICI,[I][C][I],InChI=1S/CH2I2/c2-1-3/h1H2
diisooctyl phthalate,-6.637,c1(C(=O)OCCCCCC(C)(C))c(C(=O)OCCCCCC(C)(C))cccc1,[C][Branch1][S][C][=Branch1][C][=O][O][C][C][C][C][C][C][Branch1][C][C][C][=C][Branch1][S][C][=Branch1][C][=O][O][C][C][C][C][C][C][Branch1][C][C][C][C][=C][C][=C][Ring2][Ring1][N],"InChI=1S/C24H38O4/c1-19(2)13-7-5-11-17-27-23(25)21-15-9-10-16-22(21)24(26)28-18-12-6-8-14-20(3)4/h9-10,15-16,19-20H,5-8,11-14,17-18H2,1-4H3"
Diisopropyl ether ,-1.1,CC(C)OC(C)C,[C][C][Branch1][C][C][O][C][Branch1][C][C][C],"InChI=1S/C6H14O/c1-5(2)7-6(3)4/h5-6H,1-4H3"
Diisopropylsulfide,-2.24,CC(C)SC(C)C,[C][C][Branch1][C][C][S][C][Branch1][C][C][C],"InChI=1S/C6H14S/c1-5(2)7-6(3)4/h5-6H,1-4H3"
Dimecron,0.523,CCN(CC)C(=O)C(=CCOP(=O)(OC)OC)Cl,[C][C][N][Branch1][Ring1][C][C][C][=Branch1][C][=O][C][=Branch1][=C][=C][C][O][P][=Branch1][C][=O][Branch1][Ring1][O][C][O][C][Cl],"InChI=1S/C10H19ClNO5P/c1-5-12(6-2)10(13)9(11)7-8-17-18(14,15-3)16-4/h7H,5-6,8H2,1-4H3"
Dimefuron,-4.328,CN(C)C(=O)Nc1ccc(c(Cl)c1)n2nc(oc2=O)C(C)(C)C,[C][N][Branch1][C][C][C][=Branch1][C][=O][N][C][=C][C][=C][Branch1][Branch2][C][Branch1][C][Cl][=C][Ring1][#Branch1][N][N][=C][Branch1][=Branch1][O][C][Ring1][Branch1][=O][C][Branch1][C][C][Branch1][C][C][C],"InChI=1S/C15H19ClN4O3/c1-15(2,3)12-18-20(14(22)23-12)11-7-6-9(8-10(11)16)17-13(21)19(4)5/h6-8H,1-5H3,(H,17,21)"
Dimethoxymethane,0.48,COCOC,[C][O][C][O][C],"InChI=1S/C3H8O2/c1-4-3-5-2/h3H2,1-2H3"
Dimethyl phthalate,-1.66,COC(=O)c1ccccc1C(=O)OC,[C][O][C][=Branch1][C][=O][C][=C][C][=C][C][=C][Ring1][=Branch1][C][=Branch1][C][=O][O][C],"InChI=1S/C10H10O4/c1-13-9(11)7-5-3-4-6-8(7)10(12)14-2/h3-6H,1-2H3"
Dimethyl sulfide,-0.45,CSC,[C][S][C],InChI=1S/C2H6S/c1-3-2/h1-2H3
Dimethyldisulfide,-1.44,CSSC,[C][S][S][C],InChI=1S/C2H6S2/c1-3-4-2/h1-2H3
Dinitramine,-5.47,CCN(CC)c1c(cc(c(N)c1N(=O)=O)C(F)(F)F)N(=O)=O,[C][C][N][Branch1][Ring1][C][C][C][=C][Branch2][Ring1][=Branch2][C][=C][Branch1][=N][C][Branch1][C][N][=C][Ring1][#Branch1][N][=Branch1][C][=O][=O][C][Branch1][C][F][Branch1][C][F][F][N][=Branch1][C][=O][=O],"InChI=1S/C11H13F3N4O4/c1-3-16(4-2)9-7(17(19)20)5-6(11(12,13)14)8(15)10(9)18(21)22/h5H,3-4,15H2,1-2H3"
d-inositol,0.35,OC1C(O)C(O)C(O)C(O)C1O,[O][C][C][Branch1][C][O][C][Branch1][C][O][C][Branch1][C][O][C][Branch1][C][O][C][Ring1][#Branch2][O],InChI=1S/C6H12O6/c7-1-2(8)4(10)6(12)5(11)3(1)9/h1-12H
Di-n-propylsulfide,-2.58,CCCSCCC,[C][C][C][S][C][C][C],"InChI=1S/C6H14S/c1-3-5-7-6-4-2/h3-6H2,1-2H3"
Diosgenin,-7.32,C1C(O)CCC2(C)CC3CCC4(C)C5(C)CC6OCC(C)CC6OC5CC4C3C=C21,[C][C][Branch1][C][O][C][C][C][Branch1][C][C][C][C][C][C][C][Branch1][C][C][C][Branch1][C][C][C][C][O][C][C][Branch1][C][C][C][C][Ring1][#Branch1][O][C][Ring1][N][C][C][Ring1][S][C][Ring2][Ring1][Ring2][C][=C][Ring2][Ring1][=Branch2][Ring2][Ring1][=C],"InChI=1S/C27H42O3/c1-16-9-22-23(29-15-16)14-27(4)24(30-22)12-21-20-11-18-10-19(28)6-7-25(18,2)13-17(20)5-8-26(21,27)3/h11,16-17,19-24,28H,5-10,12-15H2,1-4H3"
Dioxacarb,-1.57,CNC(=O)Oc1ccccc1C2OCCO2,[C][N][C][=Branch1][C][=O][O][C][=C][C][=C][C][=C][Ring1][=Branch1][C][O][C][C][O][Ring1][Branch1],"InChI=1S/C11H13NO4/c1-12-11(13)16-9-5-3-2-4-8(9)10-14-6-7-15-10/h2-5,10H,6-7H2,1H3,(H,12,13)"
Diphenyl ether ,-3.96,O(c1ccccc1)c2ccccc2,[O][Branch1][=Branch2][C][=C][C][=C][C][=C][Ring1][=Branch1][C][=C][C][=C][C][=C][Ring1][=Branch1],InChI=1S/C12H10O/c1-3-7-11(8-4-1)13-12-9-5-2-6-10-12/h1-10H
Diphenylamine,-3.504,N(c1ccccc1)c2ccccc2,[N][Branch1][=Branch2][C][=C][C][=C][C][=C][Ring1][=Branch1][C][=C][C][=C][C][=C][Ring1][=Branch1],"InChI=1S/C12H11N/c1-3-7-11(8-4-1)13-12-9-5-2-6-10-12/h1-10,13H"
Diphenylmethane,-4.08,C(c1ccccc1)c2ccccc2,[C][Branch1][=Branch2][C][=C][C][=C][C][=C][Ring1][=Branch1][C][=C][C][=C][C][=C][Ring1][=Branch1],"InChI=1S/C13H12/c1-3-7-12(8-4-1)11-13-9-5-2-6-10-13/h1-10H,11H2"
Dipropyl ether,-1.62,CCCOCCC,[C][C][C][O][C][C][C],"InChI=1S/C6H14O/c1-3-5-7-6-4-2/h3-6H2,1-2H3"
Disulfiram,-4.86,CCN(CC)C(=S)SSC(=S)N(CC)CC,[C][C][N][Branch1][Ring1][C][C][C][=Branch1][C][=S][S][S][C][=Branch1][C][=S][N][Branch1][Ring1][C][C][C][C],"InChI=1S/C10H20N2S4/c1-5-11(6-2)9(13)15-16-10(14)12(7-3)8-4/h5-8H2,1-4H3"
Disulfoton,-4.23,CCOP(=S)(OCC)SCCSCC,[C][C][O][P][=Branch1][C][=S][Branch1][Ring2][O][C][C][S][C][C][S][C][C],"InChI=1S/C8H19O2PS3/c1-4-9-11(12,10-5-2)14-8-7-13-6-3/h4-8H2,1-3H3"
Ditalimfos,-3.35,CCOP(=S)(OCC)N2C(=O)c1ccccc1C2=O,[C][C][O][P][=Branch1][C][=S][Branch1][Ring2][O][C][C][N][C][=Branch1][C][=O][C][=C][C][=C][C][=C][Ring1][=Branch1][C][Ring1][#Branch2][=O],"InChI=1S/C12H14NO4PS/c1-3-16-18(19,17-4-2)13-11(14)9-7-5-6-8-10(9)12(13)15/h5-8H,3-4H2,1-2H3"
Diuron,-3.8,CN(C)C(=O)Nc1ccc(Cl)c(Cl)c1,[C][N][Branch1][C][C][C][=Branch1][C][=O][N][C][=C][C][=C][Branch1][C][Cl][C][Branch1][C][Cl][=C][Ring1][Branch2],"InChI=1S/C9H10Cl2N2O/c1-13(2)9(14)12-6-3-4-7(10)8(11)5-6/h3-5H,1-2H3,(H,12,14)"
d-Limonene,-4.26,CC1=CCC(CC1)C(C)=C,[C][C][=C][C][C][Branch1][Branch1][C][C][Ring1][=Branch1][C][Branch1][C][C][=C],"InChI=1S/C10H16/c1-8(2)10-6-4-9(3)5-7-10/h4,10H,1,5-7H2,2-3H3"