Compound,solubility_log in mol/L (solubility expressed as a logarithm in mol/L),SMILES,SELFIES,InChI
Hexachloroethane,-3.67,ClC(Cl)(Cl)C(Cl)(Cl)Cl,[Cl][C][Branch1][C][Cl][Branch1][C][Cl][C][Branch1][C][Cl][Branch1][C][Cl][Cl],"InChI=1S/C2Cl6/c3-1(4,5)2(6,7)8"
hexacosane,-8.334,CCCCCCCCCCCCCCCCCCCCCCCCCC,[C][C][C][C][C][C][C][C][C][C][C][C][C][C][C][C][C][C][C][C][C][C][C][C][C][C],"InChI=1S/C26H54/c1-3-5-7-9-11-13-15-17-19-21-23-25-26-24-22-20-18-16-14-12-10-8-6-4-2/h3-26H2,1-2H3"
Hexadecane,-8.4,CCCCCCCCCCCCCCCC,[C][C][C][C][C][C][C][C][C][C][C][C][C][C][C][C],"InChI=1S/C16H34/c1-3-5-7-9-11-13-15-16-14-12-10-8-6-4-2/h3-16H2,1-2H3"
Hexamethylbenzene,-5.23,Cc1c(C)c(C)c(C)c(C)c1C,[C][C][=C][Branch1][C][C][C][Branch1][C][C][=C][Branch1][C][C][C][Branch1][C][C][=C][Ring1][#Branch2][C],InChI=1S/C12H18/c1-7-8(2)10(4)12(6)11(5)9(7)3/h1-6H3
Hexane ,-3.84,CCCCCC,[C][C][C][C][C][C],"InChI=1S/C6H14/c1-3-5-6-4-2/h3-6H2,1-2H3"
Hexestrol,-4.43,CCC(C(CC)c1ccc(O)cc1)c2ccc(O)cc2,[C][C][C][Branch1][P][C][Branch1][Ring1][C][C][C][=C][C][=C][Branch1][C][O][C][=C][Ring1][#Branch1][C][=C][C][=C][Branch1][C][O][C][=C][Ring1][#Branch1],"InChI=1S/C18H22O2/c1-3-17(13-5-9-15(19)10-6-13)18(4-2)14-7-11-16(20)12-8-14/h5-12,17-20H,3-4H2,1-2H3"
Hexylbenzene ,-5.21,CCCCCCc1ccccc1,[C][C][C][C][C][C][C][=C][C][=C][C][=C][Ring1][=Branch1],"InChI=1S/C12H18/c1-2-3-4-6-9-12-10-7-5-8-11-12/h5,7-8,10-11H,2-4,6,9H2,1H3"
hydrobenzoin,-1.93,c1ccccc1C(O)C(O)c2ccccc2,[C][=C][C][=C][C][=C][Ring1][=Branch1][C][Branch1][C][O][C][Branch1][C][O][C][=C][C][=C][C][=C][Ring1][=Branch1],"InChI=1S/C14H14O2/c15-13(11-7-3-1-4-8-11)14(16)12-9-5-2-6-10-12/h1-10,13-16H"
Hydrocortisone ,-3.09,CC12CC(O)C3C(CCC4=CC(=O)CCC34C)C2CCC1(O)C(=O)CO,[C][C][C][C][Branch1][C][O][C][C][Branch1][P][C][C][C][=C][C][=Branch1][C][=O][C][C][C][Ring1][O][Ring1][#Branch1][C][C][Ring1][P][C][C][C][Ring2][Ring1][Ring2][Branch1][C][O][C][=Branch1][C][=O][C][O],"InChI=1S/C21H30O5/c1-19-7-5-13(23)9-12(19)3-4-14-15-6-8-21(26,17(25)11-22)20(15,2)10-16(24)18(14)19/h9,14-16,18,22,24,26H,3-8,10-11H2,1-2H3"
Hydrocortisone 21-acetate,-4.88,CC(=O)OCC(=O)C1(O)CCC2C3CCC4=CC(=O)CCC4(C)C3C(O)CC21C,[C][C][=Branch1][C][=O][O][C][C][=Branch1][C][=O][C][Branch1][C][O][C][C][C][C][C][C][C][=C][C][=Branch1][C][=O][C][C][C][Ring1][#Branch1][Branch1][C][C][C][Ring1][N][C][Branch1][C][O][C][C][Ring1][P][Ring2][Ring1][Branch1][C],"InChI=1S/C23H32O6/c1-13(24)29-12-19(27)23(28)9-7-17-16-5-4-14-10-15(25)6-8-21(14,2)20(16)18(26)11-22(17,23)3/h10,16-18,20,26,28H,4-9,11-12H2,1-3H3"
Hydroxyprogesterone-17a,-3.817,CC(=O)C1(O)CCC2C3CCC4=CC(=O)CCC4(C)C3CCC21C,[C][C][=Branch1][C][=O][C][Branch1][C][O][C][C][C][C][C][C][C][=C][C][=Branch1][C][=O][C][C][C][Ring1][#Branch1][Branch1][C][C][C][Ring1][N][C][C][C][Ring1][S][Ring2][Ring1][Ring2][C],"InChI=1S/C21H30O3/c1-13(22)21(24)11-8-18-16-5-4-14-12-15(23)6-9-19(14,2)17(16)7-10-20(18,21)3/h12,16-18,24H,4-11H2,1-3H3"
Indan,-3.04,C1Cc2ccccc2C1,[C][C][C][=C][C][=C][C][=C][Ring1][=Branch1][C][Ring1][=Branch2],"InChI=1S/C9H10/c1-2-5-9-7-3-6-8(9)4-1/h1-2,4-5H,3,6-7H2"
Indole,-1.52,c2ccc1[nH]ccc1c2,[C][=C][C][=C][NH1][C][=C][C][Ring1][Branch1][=C][Ring1][=Branch2],"InChI=1S/C8H7N/c1-2-4-8-7(3-1)5-6-9-8/h1-6,9H"
Inosine,-1.23,OCC1OC(C(O)C1O)n2cnc3c(O)ncnc23,[O][C][C][O][C][Branch1][=Branch2][C][Branch1][C][O][C][Ring1][=Branch1][O][N][C][=N][C][=C][Branch1][C][O][N][=C][N][=C][Ring1][#Branch2][Ring1][#Branch1],"InChI=1S/C10H12N4O5/c15-1-4-6(16)7(17)10(19-4)14-3-13-5-8(14)11-2-12-9(5)18/h2-4,6-7,10,15-17H,1H2,(H,11,12,18)"
Iodobenzene,-3.01,Ic1ccccc1,[I][C][=C][C][=C][C][=C][Ring1][=Branch1],InChI=1S/C6H5I/c7-6-4-2-1-3-5-6/h1-5H
Iodoethane,-1.6,CCI,[C][C][I],"InChI=1S/C2H5I/c1-2-3/h2H2,1H3"
Iodofenphos,-6.62,COP(=S)(OC)Oc1cc(Cl)c(I)cc1Cl,[C][O][P][=Branch1][C][=S][Branch1][Ring1][O][C][O][C][=C][C][Branch1][C][Cl][=C][Branch1][C][I][C][=C][Ring1][Branch2][Cl],"InChI=1S/C8H8Cl2IO3PS/c1-12-15(16,13-2)14-8-4-5(9)7(11)3-6(8)10/h3-4H,1-2H3"
Iodomethane,-1,CI,[C][I],InChI=1S/CH3I/c1-2/h1H3
Ioxynil,-3.61,Oc1c(I)cc(C#N)cc1I,[O][C][=C][Branch1][C][I][C][=C][Branch1][Ring1][C][#N][C][=C][Ring1][=Branch2][I],"InChI=1S/C7H3I2NO/c8-5-1-4(3-10)2-6(9)7(5)11/h1-2,11H"
Ipazine,-3.785,CCN(CC)c1nc(Cl)nc(NC(C)C)n1,[C][C][N][Branch1][Ring1][C][C][C][=N][C][Branch1][C][Cl][=N][C][Branch1][#Branch1][N][C][Branch1][C][C][C][=N][Ring1][O],"InChI=1S/C10H18ClN5/c1-5-16(6-2)10-14-8(11)13-9(15-10)12-7(3)4/h7H,5-6H2,1-4H3,(H,12,13,14,15)"
Isazofos,-3.658,CCOP(=S)(OCC)Oc1nc(Cl)n(n1)C(C)C,[C][C][O][P][=Branch1][C][=S][Branch1][Ring2][O][C][C][O][C][N][=C][Branch1][C][Cl][N][Branch1][Ring2][N][=Ring1][=Branch1][C][Branch1][C][C][C],"InChI=1S/C9H17ClN3O3PS/c1-5-14-17(18,15-6-2)16-9-11-8(10)13(12-9)7(3)4/h7H,5-6H2,1-4H3"
Isobutyl acetate,-1.21,CC(C)COC(=O)C,[C][C][Branch1][C][C][C][O][C][=Branch1][C][=O][C],"InChI=1S/C6H12O2/c1-5(2)4-8-6(3)7/h5H,4H2,1-3H3"
Isobutyl formate,-1.01,CC(C)COC=O,[C][C][Branch1][C][C][C][O][C][=O],"InChI=1S/C5H10O2/c1-5(2)3-7-4-6/h4-5H,3H2,1-2H3"
Isobutylbenzene,-4.12,CC(C)Cc1ccccc1,[C][C][Branch1][C][C][C][C][=C][C][=C][C][=C][Ring1][=Branch1],"InChI=1S/C10H14/c1-9(2)8-10-6-4-3-5-7-10/h3-7,9H,8H2,1-2H3"
isocarbamid,-2.15,C1N(C(=O)NCC(C)C)C(=O)NC1,[C][N][Branch1][N][C][=Branch1][C][=O][N][C][C][Branch1][C][C][C][C][=Branch1][C][=O][N][C][Ring1][=N],"InChI=1S/C8H15N3O2/c1-6(2)5-10-8(13)11-4-3-9-7(11)12/h6H,3-5H2,1-2H3,(H,9,12)(H,10,13)"
Isocarboxazid,-2.461,Cc1cc(no1)C(=O)NNCc2ccccc2,[C][C][=C][C][=Branch1][Branch1][=N][O][Ring1][Branch1][C][=Branch1][C][=O][N][N][C][C][=C][C][=C][C][=C][Ring1][=Branch1],"InChI=1S/C12H13N3O2/c1-9-7-11(15-17-9)12(16)14-13-8-10-5-3-2-4-6-10/h2-7,13H,8H2,1H3,(H,14,16)"
Isofenphos,-4.194,CCOP(=S)(NC(C)C)Oc1ccccc1C(=O)OC(C)C,[C][C][O][P][=Branch1][C][=S][Branch1][#Branch1][N][C][Branch1][C][C][C][O][C][=C][C][=C][C][=C][Ring1][=Branch1][C][=Branch1][C][=O][O][C][Branch1][C][C][C],"InChI=1S/C15H24NO4PS/c1-6-18-21(22,16-11(2)3)20-14-10-8-7-9-13(14)15(17)19-12(4)5/h7-12H,6H2,1-5H3,(H,16,22)"
Isonazid,0.009,c1nccc(C(=O)NN)c1,[C][=N][C][=C][C][Branch1][#Branch1][C][=Branch1][C][=O][N][N][=C][Ring1][#Branch2],"InChI=1S/C6H7N3O/c7-9-6(10)5-1-3-8-4-2-5/h1-4H,7H2,(H,9,10)"
Isopentyl acetate,-1.92,CC(C)CCOC(=O)C,[C][C][Branch1][C][C][C][C][O][C][=Branch1][C][=O][C],"InChI=1S/C7H14O2/c1-6(2)4-5-9-7(3)8/h6H,4-5H2,1-3H3"
Isopentyl formate,-1.52,CC(C)CCOC=O,[C][C][Branch1][C][C][C][C][O][C][=O],"InChI=1S/C6H12O2/c1-6(2)3-4-8-5-7/h5-6H,3-4H2,1-2H3"
Isoprocarb,-2.863,CNC(=O)Oc1ccccc1C(C)C,[C][N][C][=Branch1][C][=O][O][C][=C][C][=C][C][=C][Ring1][=Branch1][C][Branch1][C][C][C],"InChI=1S/C11H15NO2/c1-8(2)9-6-4-5-7-10(9)14-11(13)12-3/h4-8H,1-3H3,(H,12,13)"
Isopropalin,-6.49,CCCN(CCC)c1c(cc(cc1N(=O)=O)C(C)C)N(=O)=O,[C][C][C][N][Branch1][Ring2][C][C][C][C][=C][Branch2][Ring1][Ring1][C][=C][Branch1][#Branch2][C][=C][Ring1][=Branch1][N][=Branch1][C][=O][=O][C][Branch1][C][C][C][N][=Branch1][C][=O][=O],"InChI=1S/C15H23N3O4/c1-5-7-16(8-6-2)15-13(17(19)20)9-12(11(3)4)10-14(15)18(21)22/h9-11H,5-8H2,1-4H3"
Isopropyl acetate,-0.55,CC(C)OC(=O)C,[C][C][Branch1][C][C][O][C][=Branch1][C][=O][C],"InChI=1S/C5H10O2/c1-4(2)7-5(3)6/h4H,1-3H3"
Isopropyl formate,-0.63,CC(C)OC=O,[C][C][Branch1][C][C][O][C][=O],"InChI=1S/C4H8O2/c1-4(2)6-3-5/h3-4H,1-2H3"
Isopropylbenzene ,-3.27,CC(C)c1ccccc1,[C][C][Branch1][C][C][C][=C][C][=C][C][=C][Ring1][=Branch1],"InChI=1S/C9H12/c1-8(2)9-6-4-3-5-7-9/h3-8H,1-2H3"
Isoproturon,-3.536,CC(C)c1ccc(NC(=O)N(C)C)cc1,[C][C][Branch1][C][C][C][=C][C][=C][Branch1][O][N][C][=Branch1][C][=O][N][Branch1][C][C][C][C][=C][Ring1][N],"InChI=1S/C12H18N2O/c1-9(2)10-5-7-11(8-6-10)13-12(15)14(3)4/h5-9H,1-4H3,(H,13,15)"
Isoquinoline,-1.45,c1ccc2cnccc2c1,[C][=C][C][=C][C][=N][C][=C][C][Ring1][=Branch1][=C][Ring1][#Branch2],InChI=1S/C9H7N/c1-2-4-9-7-10-6-5-8(9)3-1/h1-7H
kebuzone,-3.27,CC(=O)CCC1C(=O)N(N(C1=O)c2ccccc2)c3ccccc3,[C][C][=Branch1][C][=O][C][C][C][C][=Branch1][C][=O][N][Branch1][S][N][Branch1][Branch1][C][Ring1][=Branch1][=O][C][=C][C][=C][C][=C][Ring1][=Branch1][C][=C][C][=C][C][=C][Ring1][=Branch1],"InChI=1S/C19H18N2O3/c1-14(22)12-13-17-18(23)20(15-8-4-2-5-9-15)21(19(17)24)16-10-6-3-7-11-16/h2-11,17H,12-13H2,1H3"
Kepone,-5.259,ClC1(C(=O)C2(Cl)C3(Cl)C14Cl)C5(Cl)C2(Cl)C3(Cl)C(Cl)(Cl)C45Cl,[Cl][C][Branch1][P][C][=Branch1][C][=O][C][Branch1][C][Cl][C][Branch1][C][Cl][C][Ring1][Branch2][Cl][C][Branch1][C][Cl][C][Ring1][=Branch2][Branch1][C][Cl][C][Ring1][=Branch2][Branch1][C][Cl][C][Branch1][C][Cl][Branch1][C][Cl][C][Ring1][N][Ring1][#Branch2][Cl],"InChI=1S/C10Cl10O/c11-2-1(21)3(12)6(15)4(2,13)8(17)5(2,14)7(3,16)9(6,18)10(8,19)20"
Lactose,-0.244,OCC1OC(OC2C(O)C(O)C(O)OC2CO)C(O)C(O)C1O,[O][C][C][O][C][Branch2][Ring1][Branch1][O][C][C][Branch1][C][O][C][Branch1][C][O][C][Branch1][C][O][O][C][Ring1][=Branch2][C][O][C][Branch1][C][O][C][Branch1][C][O][C][Ring2][Ring1][Ring2][O],"InChI=1S/C12H22O11/c13-1-3-5(15)6(16)9(19)12(22-3)23-10-4(2-14)21-11(20)8(18)7(10)17/h3-20H,1-2H2"
L-arabinose,0.39,C1OC(O)C(O)C(O)C1O,[C][O][C][Branch1][C][O][C][Branch1][C][O][C][Branch1][C][O][C][Ring1][=Branch2][O],"InChI=1S/C5H10O5/c6-2-1-10-5(9)4(8)3(2)7/h2-9H,1H2"
Lenacil,-4.594,O=c2[nH]c1CCCc1c(=O)n2C3CCCCC3,[O][=C][NH1][C][C][C][C][C][=Ring1][Branch1][C][=Branch1][C][=O][N][Ring1][#Branch2][C][C][C][C][C][C][Ring1][=Branch1],"InChI=1S/C13H18N2O2/c16-12-10-7-4-8-11(10)14-13(17)15(12)9-5-2-1-3-6-9/h9H,1-8H2,(H,14,17)"
linalool,-1.99,CC(C)=CCCC(O)(C)C=C,[C][C][Branch1][C][C][=C][C][C][C][Branch1][C][O][Branch1][C][C][C][=C],"InChI=1S/C10H18O/c1-5-10(4,11)8-6-7-9(2)3/h5,7,11H,1,6,8H2,2-4H3"
Lindane,-4.64,ClC1C(Cl)C(Cl)C(Cl)C(Cl)C1Cl,[Cl][C][C][Branch1][C][Cl][C][Branch1][C][Cl][C][Branch1][C][Cl][C][Branch1][C][Cl][C][Ring1][#Branch2][Cl],InChI=1S/C6H6Cl6/c7-1-2(8)4(10)6(12)5(11)3(1)9/h1-6H
Linuron,-3.592,CON(C)C(=O)Nc1ccc(Cl)c(Cl)c1,[C][O][N][Branch1][C][C][C][=Branch1][C][=O][N][C][=C][C][=C][Branch1][C][Cl][C][Branch1][C][Cl][=C][Ring1][Branch2],"InChI=1S/C9H10Cl2N2O2/c1-13(15-2)9(14)12-6-3-4-7(10)8(11)5-6/h3-5H,1-2H3,(H,12,14)"
Lorazepam,-3.604,OC3N=C(c1ccccc1Cl)c2cc(Cl)ccc2NC3=O,[O][C][N][=C][Branch1][#Branch2][C][=C][C][=C][C][=C][Ring1][=Branch1][Cl][C][=C][C][Branch1][C][Cl][=C][C][=C][Ring1][#Branch1][N][C][Ring2][Ring1][Ring1][=O],"InChI=1S/C15H10Cl2N2O2/c16-8-5-6-12-10(7-8)13(19-15(21)14(20)18-12)9-3-1-2-4-11(9)17/h1-7,15,21H,(H,18,20)"
Malathion,-3.37,CCOC(=O)CC(SP(=S)(OC)OC)C(=O)OCC,[C][C][O][C][=Branch1][C][=O][C][C][Branch1][N][S][P][=Branch1][C][=S][Branch1][Ring1][O][C][O][C][C][=Branch1][C][=O][O][C][C],"InChI=1S/C10H19O6PS2/c1-5-15-9(11)7-8(10(12)16-6-2)19-17(18,13-3)14-4/h8H,5-7H2,1-4H3"
Malonic acid diethylester,-0.82,CCOC(=O)CC(=O)OCC,[C][C][O][C][=Branch1][C][=O][C][C][=Branch1][C][=O][O][C][C],"InChI=1S/C7H12O4/c1-3-10-6(8)5-7(9)11-4-2/h3-5H2,1-2H3"
Maltose,0.358,OCC1OC(OC2C(O)C(O)C(O)OC2CO)C(O)C(O)C1O,[O][C][C][O][C][Branch2][Ring1][Branch1][O][C][C][Branch1][C][O][C][Branch1][C][O][C][Branch1][C][O][O][C][Ring1][=Branch2][C][O][C][Branch1][C][O][C][Branch1][C][O][C][Ring2][Ring1][Ring2][O],"InChI=1S/C12H22O11/c13-1-3-5(15)6(16)9(19)12(22-3)23-10-4(2-14)21-11(20)8(18)7(10)17/h3-20H,1-2H2"
m-Chloroaniline,-1.37,Nc1cccc(Cl)c1,[N][C][=C][C][=C][C][Branch1][C][Cl][=C][Ring1][#Branch1],"InChI=1S/C6H6ClN/c7-5-2-1-3-6(8)4-5/h1-4H,8H2"
m-Chlorobromobenzene,-3.21,Clc1cccc(Br)c1,[Cl][C][=C][C][=C][C][Branch1][C][Br][=C][Ring1][#Branch1],InChI=1S/C6H4BrCl/c7-5-2-1-3-6(8)4-5/h1-4H
m-Chloroiodobenzene,-3.55,Clc1cccc(I)c1,[Cl][C][=C][C][=C][C][Branch1][C][I][=C][Ring1][#Branch1],InChI=1S/C6H4ClI/c7-5-2-1-3-6(8)4-5/h1-4H
m-Chloronitrobenzene ,-2.77,Clc1cccc(c1)N(=O)=O,[Cl][C][=C][C][=C][C][=Branch1][Ring2][=C][Ring1][=Branch1][N][=Branch1][C][=O][=O],InChI=1S/C6H4ClNO2/c7-5-2-1-3-6(4-5)8(9)10/h1-4H
Mebendazole,-3.88,COC(=O)Nc2nc1ccc(cc1[nH]2)C(=O)c3ccccc3,[C][O][C][=Branch1][C][=O][N][C][=N][C][=C][C][=C][Branch1][Branch2][C][=C][Ring1][=Branch1][NH1][Ring1][=Branch2][C][=Branch1][C][=O][C][=C][C][=C][C][=C][Ring1][=Branch1],"InChI=1S/C16H13N3O3/c1-22-16(21)19-15-17-12-8-7-11(9-13(12)18-15)14(20)10-5-3-2-4-6-10/h2-9H,1H3,(H2,17,18,19,21)"
Mecarbam,-2.518,CCOC(=O)N(C)C(=O)CSP(=S)(OCC)OCC,[C][C][O][C][=Branch1][C][=O][N][Branch1][C][C][C][=Branch1][C][=O][C][S][P][=Branch1][C][=S][Branch1][Ring2][O][C][C][O][C][C],"InChI=1S/C10H20NO5PS2/c1-5-14-10(13)11(4)9(12)8-19-17(18,15-6-2)16-7-3/h5-8H2,1-4H3"
meconin,-1.899,c1c(OC)c(OC)C2C(=O)OCC2c1,[C][C][Branch1][Ring1][O][C][=C][Branch1][Ring1][O][C][C][C][=Branch1][C][=O][O][C][C][Ring1][=Branch1][C][=Ring1][=C],"InChI=1S/C10H12O4/c1-12-7-4-3-6-5-14-10(11)8(6)9(7)13-2/h3-4,6,8H,5H2,1-2H3"
Medrogestone,-5.27,CC(=O)C3(C)CCC4C2C=C(C)C1=CC(=O)CCC1(C)C2CCC34C,[C][C][=Branch1][C][=O][C][Branch1][C][C][C][C][C][C][C][=C][Branch1][C][C][C][=C][C][=Branch1][C][=O][C][C][C][Ring1][#Branch1][Branch1][C][C][C][Ring1][=N][C][C][C][Ring2][Ring1][Branch1][Ring1][P][C],"InChI=1S/C23H32O2/c1-14-12-17-18(21(3)9-6-16(25)13-20(14)21)7-11-23(5)19(17)8-10-22(23,4)15(2)24/h12-13,17-19H,6-11H2,1-5H3"
Mefenacet,-4.873,CN(C(=O)COc1nc2ccccc2s1)c3ccccc3,[C][N][Branch2][Ring1][Ring2][C][=Branch1][C][=O][C][O][C][=N][C][=C][C][=C][C][=C][Ring1][=Branch1][S][Ring1][=Branch2][C][=C][C][=C][C][=C][Ring1][=Branch1],"InChI=1S/C16H14N2O2S/c1-18(12-7-3-2-4-8-12)15(19)11-20-16-17-13-9-5-6-10-14(13)21-16/h2-10H,11H2,1H3"
Mefluidide,-3.24,CC(=O)Nc1cc(NS(=O)(=O)C(F)(F)F)c(C)cc1C,[C][C][=Branch1][C][=O][N][C][=C][C][Branch1][P][N][S][=Branch1][C][=O][=Branch1][C][=O][C][Branch1][C][F][Branch1][C][F][F][=C][Branch1][C][C][C][=C][Ring1][#C][C],"InChI=1S/C11H13F3N2O3S/c1-6-4-7(2)10(5-9(6)15-8(3)17)16-20(18,19)11(12,13)14/h4-5,16H,1-3H3,(H,15,17)"
Menthone,-2.35,CC(C)C1CCC(C)CC1=O,[C][C][Branch1][C][C][C][C][C][C][Branch1][C][C][C][C][Ring1][#Branch1][=O],"InChI=1S/C10H18O/c1-7(2)9-5-4-8(3)6-10(9)11/h7-9H,4-6H2,1-3H3"
Methane,-0.9,C,[C],InChI=1S/CH4/h1H4
Methanol,1.57,CO,[C][O],"InChI=1S/CH4O/c1-2/h2H,1H3"
Methaqualone,-2.925,Cc1ccccc1n3c(C)nc2ccccc2c3=O,[C][C][=C][C][=C][C][=C][Ring1][=Branch1][N][C][Branch1][C][C][=N][C][=C][C][=C][C][=C][Ring1][=Branch1][C][Ring1][O][=O],"InChI=1S/C16H14N2O/c1-11-7-3-6-10-15(11)18-12(2)17-14-9-5-4-8-13(14)16(18)19/h3-10H,1-2H3"
Methazole,-2.82,Cn2c(=O)on(c1ccc(Cl)c(Cl)c1)c2=O,[C][N][C][=Branch1][C][=O][O][N][Branch1][#C][C][=C][C][=C][Branch1][C][Cl][C][Branch1][C][Cl][=C][Ring1][Branch2][C][Ring1][=C][=O],"InChI=1S/C9H6Cl2N2O3/c1-12-8(14)13(16-9(12)15)5-2-3-6(10)7(11)4-5/h2-4H,1H3"
Methocarbamol,-0.985,COc1ccccc1OCC(O)COC(N)=O,[C][O][C][=C][C][=C][C][=C][Ring1][=Branch1][O][C][C][Branch1][C][O][C][O][C][Branch1][C][N][=O],"InChI=1S/C11H15NO5/c1-15-9-4-2-3-5-10(9)16-6-8(13)7-17-11(12)14/h2-5,8,13H,6-7H2,1H3,(H2,12,14)"
Methoprene,-5.19,COC(C)(C)CCCC(C)CC=CC(C)=CC(=O)OC(C)C,[C][O][C][Branch1][C][C][Branch1][C][C][C][C][C][C][Branch1][C][C][C][C][=C][C][Branch1][C][C][=C][C][=Branch1][C][=O][O][C][Branch1][C][C][C],"InChI=1S/C19H34O3/c1-15(2)22-18(20)14-17(4)11-8-10-16(3)12-9-13-19(5,6)21-7/h8,11,14-16H,9-10,12-13H2,1-7H3"
Methoproptryne,-2.928,COCCCNc1nc(NC(C)C)nc(SC)n1,[C][O][C][C][C][N][C][=N][C][Branch1][#Branch1][N][C][Branch1][C][C][C][=N][C][Branch1][Ring1][S][C][=N][Ring1][N],"InChI=1S/C11H21N5OS/c1-8(2)13-10-14-9(12-6-5-7-17-3)15-11(16-10)18-4/h8H,5-7H2,1-4H3,(H2,12,13,14,15,16)"
Methoxychlor,-6.89,COc1ccc(cc1)C(c2ccc(OC)cc2)C(Cl)(Cl)Cl,[C][O][C][=C][C][=C][Branch1][Branch1][C][=C][Ring1][=Branch1][C][Branch1][=N][C][=C][C][=C][Branch1][Ring1][O][C][C][=C][Ring1][Branch2][C][Branch1][C][Cl][Branch1][C][Cl][Cl],"InChI=1S/C16H15Cl3O2/c1-20-13-7-3-11(4-8-13)15(16(17,18)19)12-5-9-14(21-2)10-6-12/h3-10,15H,1-2H3"
Methyl acetate,0.46,COC(=O)C,[C][O][C][=Branch1][C][=O][C],InChI=1S/C3H6O2/c1-3(4)5-2/h1-2H3
Methyl acrylate,-0.22,COC(=O)C=C,[C][O][C][=Branch1][C][=O][C][=C],"InChI=1S/C4H6O2/c1-3-4(5)6-2/h3H,1H2,2H3"
Methyl benzoate ,-1.85,COC(=O)c1ccccc1,[C][O][C][=Branch1][C][=O][C][=C][C][=C][C][=C][Ring1][=Branch1],"InChI=1S/C8H8O2/c1-10-8(9)7-5-3-2-4-6-7/h2-6H,1H3"
Methyl butyl ether ,-0.99,CCCCOC,[C][C][C][C][O][C],"InChI=1S/C5H12O/c1-3-4-5-6-2/h3-5H2,1-2H3"
Methyl butyrate,-0.82,CCCOC(=O)CC,[C][C][C][O][C][=Branch1][C][=O][C][C],"InChI=1S/C6H12O2/c1-3-5-8-6(7)4-2/h3-5H2,1-2H3"
Methyl decanoate,-4.69,CCCCCCCCCC(=O)OC,[C][C][C][C][C][C][C][C][C][C][=Branch1][C][=O][O][C],"InChI=1S/C11H22O2/c1-3-4-5-6-7-8-9-10-11(12)13-2/h3-10H2,1-2H3"
Methyl formate,0.58,COC=O,[C][O][C][=O],"InChI=1S/C2H4O2/c1-4-2-3/h2H,1H3"
Methyl hexanoate,-1.87,CCCCCC(=O)OC,[C][C][C][C][C][C][=Branch1][C][=O][O][C],"InChI=1S/C7H14O2/c1-3-4-5-6-7(8)9-2/h3-6H2,1-2H3"
Methyl hydrazine,1.34,CNN,[C][N][N],"InChI=1S/CH6N2/c1-3-2/h3H,2H2,1H3"
methyl laurate,-4.69,CCCCCCCCCCCC(=O)OC,[C][C][C][C][C][C][C][C][C][C][C][C][=Branch1][C][=O][O][C],"InChI=1S/C13H26O2/c1-3-4-5-6-7-8-9-10-11-12-13(14)15-2/h3-12H2,1-2H3"
Methyl nonanoate,-3.38,CCCCCCCCC(=O)OC,[C][C][C][C][C][C][C][C][C][=Branch1][C][=O][O][C],"InChI=1S/C10H20O2/c1-3-4-5-6-7-8-9-10(11)12-2/h3-9H2,1-2H3"
Methyl octanoate,-3.17,CCCCCCCC(=O)OC,[C][C][C][C][C][C][C][C][=Branch1][C][=O][O][C],"InChI=1S/C9H18O2/c1-3-4-5-6-7-8-9(10)11-2/h3-8H2,1-2H3"
Methyl pentanoate,-1.36,CCCC(=O)OCC,[C][C][C][C][=Branch1][C][=O][O][C][C],"InChI=1S/C6H12O2/c1-3-5-6(7)8-4-2/h3-5H2,1-2H3"
Methyl propionate,-0.14,CCC(=O)OC,[C][C][C][=Branch1][C][=O][O][C],"InChI=1S/C4H8O2/c1-3-4(5)6-2/h3H2,1-2H3"
Methyl propyl ether ,-0.39,CCCOC,[C][C][C][O][C],"InChI=1S/C4H10O/c1-3-4-5-2/h3-4H2,1-2H3"
Methyl t-butyl ether ,-0.24,COC(C)(C)C,[C][O][C][Branch1][C][C][Branch1][C][C][C],"InChI=1S/C5H12O/c1-5(2,3)6-4/h1-4H3"
Methylcyclohexane ,-3.85,CC1CCCCC1,[C][C][C][C][C][C][C][Ring1][=Branch1],"InChI=1S/C7H14/c1-7-5-3-2-4-6-7/h7H,2-6H2,1H3"
Methylcyclopentane,-3.3,CC1CCCC1,[C][C][C][C][C][C][Ring1][Branch1],"InChI=1S/C6H12/c1-6-4-2-3-5-6/h6H,2-5H2,1H3"
Methyldymron,-3.35,CN(C(=O)NC(C)(C)c1ccccc1)c2ccccc2,[C][N][Branch2][Ring1][Branch1][C][=Branch1][C][=O][N][C][Branch1][C][C][Branch1][C][C][C][=C][C][=C][C][=C][Ring1][=Branch1][C][=C][C][=C][C][=C][Ring1][=Branch1],"InChI=1S/C17H20N2O/c1-17(2,14-10-6-4-7-11-14)18-16(20)19(3)15-12-8-5-9-13-15/h4-13H,1-3H3,(H,18,20)"
Methylparaben,-1.827,COC(=O)c1ccc(O)cc1,[C][O][C][=Branch1][C][=O][C][=C][C][=C][Branch1][C][O][C][=C][Ring1][#Branch1],"InChI=1S/C8H8O3/c1-11-8(10)6-2-4-7(9)5-3-6/h2-5,9H,1H3"
methylthiouracil,-2.436,Cc1cc(=O)[nH]c(=S)[nH]1,[C][C][=C][C][=Branch1][C][=O][NH1][C][=Branch1][C][=S][NH1][Ring1][Branch2],"InChI=1S/C5H6N2OS/c1-3-2-4(8)7-5(9)6-3/h2H,1H3,(H2,6,7,8,9)"
Metolcarb,-1.803,c1ccccc1(OC(=O)NC),[C][=C][C][=C][C][=C][Ring1][=Branch1][O][C][=Branch1][C][=O][N][C],"InChI=1S/C8H9NO2/c1-9-8(10)11-7-5-3-2-4-6-7/h2-6H,1H3,(H,9,10)"
Metoxuron,-2.564,COc1ccc(NC(=O)N(C)C)cc1Cl,[C][O][C][=C][C][=C][Branch1][O][N][C][=Branch1][C][=O][N][Branch1][C][C][C][C][=C][Ring1][N][Cl],"InChI=1S/C10H13ClN2O2/c1-13(2)10(14)12-7-4-5-9(15-3)8(11)6-7/h4-6H,1-3H3,(H,12,14)"
Metribuzin,-2.253,CSc1nnc(c(=O)n1N)C(C)(C)C,[C][S][C][=N][N][=C][Branch1][=Branch2][C][=Branch1][C][=O][N][Ring1][#Branch1][N][C][Branch1][C][C][Branch1][C][C][C],"InChI=1S/C8H14N4OS/c1-8(2,3)5-6(13)12(9)7(14-4)11-10-5/h9H2,1-4H3"
Metronidazole,-1.22,Cc1ncc(N(=O)=O)n1CCO,[C][C][=N][C][=C][Branch1][=Branch1][N][=Branch1][C][=O][=O][N][Ring1][Branch2][C][C][O],"InChI=1S/C6H9N3O3/c1-5-7-4-6(9(11)12)8(5)2-3-10/h4,10H,2-3H2,1H3"
m-Fluorobromobenzene,-2.67,Fc1cccc(Br)c1,[F][C][=C][C][=C][C][Branch1][C][Br][=C][Ring1][#Branch1],InChI=1S/C6H4BrF/c7-5-2-1-3-6(8)4-5/h1-4H
Mirex,-6.8,ClC1(C2(Cl)C3(Cl)C4(Cl)C5(Cl)C1(Cl)C3(Cl)Cl)C5(Cl)C(Cl)(Cl)C24Cl,[Cl][C][Branch2][Ring1][=C][C][Branch1][C][Cl][C][Branch1][C][Cl][C][Branch1][C][Cl][C][Branch1][C][Cl][C][Ring1][#Branch2][Branch1][C][Cl][C][Ring1][=Branch2][Branch1][C][Cl][Cl][C][Ring1][Branch2][Branch1][C][Cl][C][Branch1][C][Cl][Branch1][C][Cl][C][Ring2][Ring1][Ring1][Ring1][#C][Cl],"InChI=1S/C10Cl12/c11-1-2(12)7(17)4(14)3(13,5(1,15)9(7,19)20)6(1,16)10(21,22)8(2,4)18"
m-Methylaniline,-0.85,Cc1cccc(N)c1,[C][C][=C][C][=C][C][Branch1][C][N][=C][Ring1][#Branch1],"InChI=1S/C7H9N/c1-6-3-2-4-7(8)5-6/h2-5H,8H2,1H3"